  -5.99999987E-02     0.00000000    
  -5.97000010E-02     1.82186231E-08
  -5.93999997E-02     5.52827899E-08
  -5.90999983E-02     1.10218288E-07
  -5.88000007E-02     1.80705214E-07
  -5.84999993E-02     2.63526317E-07
  -5.82000017E-02     3.55146000E-07
  -5.79000004E-02     4.52339975E-07
  -5.75999990E-02     5.52788833E-07
  -5.73000014E-02     6.55555084E-07
  -5.70000000E-02     7.61379681E-07
  -5.66999987E-02     8.72761177E-07
  -5.64000010E-02     9.93810659E-07
  -5.60999997E-02     1.12990836E-06
  -5.57999983E-02     1.28721467E-06
  -5.55000007E-02     1.47211040E-06
  -5.51999994E-02     1.69064708E-06
  -5.49000017E-02     1.94809081E-06
  -5.46000004E-02     2.24862538E-06
  -5.42999990E-02     2.59525859E-06
  -5.40000014E-02     2.98995133E-06
  -5.37000000E-02     3.43394890E-06
  -5.33999987E-02     3.92827769E-06
  -5.31000011E-02     4.47433968E-06
  -5.27999997E-02     5.07452796E-06
  -5.24999984E-02     5.73278612E-06
  -5.22000007E-02     6.45504315E-06
  -5.18999994E-02     7.24947267E-06
  -5.16000018E-02     8.12655162E-06
  -5.13000004E-02     9.09892515E-06
  -5.09999990E-02     1.01811038E-05
  -5.07000014E-02     1.13890555E-05
  -5.04000001E-02     1.27397525E-05
  -5.00999987E-02     1.42507542E-05
  -4.98000011E-02     1.59398915E-05
  -4.94999997E-02     1.78251121E-05
  -4.91999984E-02     1.99245114E-05
  -4.89000008E-02     2.22565741E-05
  -4.85999994E-02     2.48405795E-05
  -4.83000018E-02     2.76971750E-05
  -4.80000004E-02     3.08489980E-05
  -4.76999991E-02     3.43213251E-05
  -4.74000014E-02     3.81426908E-05
  -4.71000001E-02     4.23453421E-05
  -4.67999987E-02     4.69655897E-05
  -4.65000011E-02     5.20439571E-05
  -4.61999997E-02     5.76251732E-05
  -4.58999984E-02     6.37580306E-05
  -4.56000008E-02     7.04951599E-05
  -4.52999994E-02     7.78927424E-05
  -4.50000018E-02     8.60102955E-05
  -4.47000004E-02     9.49105452E-05
  -4.43999991E-02     1.04659397E-04
  -4.41000015E-02     1.15326162E-04
  -4.38000001E-02     1.26983839E-04
  -4.34999987E-02     1.39709678E-04
  -4.32000011E-02     1.53585759E-04
  -4.28999998E-02     1.68699698E-04
  -4.25999984E-02     1.85145371E-04
  -4.23000008E-02     2.03023475E-04
  -4.19999994E-02     2.22442119E-04
  -4.17000018E-02     2.43517221E-04
  -4.14000005E-02     2.66372634E-04
  -4.10999991E-02     2.91140284E-04
  -4.08000015E-02     3.17960046E-04
  -4.05000001E-02     3.46979446E-04
  -4.01999988E-02     3.78353609E-04
  -3.99000011E-02     4.12244786E-04
  -3.95999998E-02     4.48822393E-04
  -3.92999984E-02     4.88262682E-04
  -3.90000008E-02     5.30748977E-04
  -3.86999995E-02     5.76471677E-04
  -3.84000018E-02     6.25628687E-04
  -3.81000005E-02     6.78425422E-04
  -3.77999991E-02     7.35075737E-04
  -3.75000015E-02     7.95801636E-04
  -3.72000001E-02     8.60833796E-04
  -3.68999988E-02     9.30411858E-04
  -3.66000012E-02     1.00478379E-03
  -3.62999998E-02     1.08420581E-03
  -3.59999985E-02     1.16894231E-03
  -3.57000008E-02     1.25926419E-03
  -3.53999995E-02     1.35544850E-03
  -3.51000018E-02     1.45777781E-03
  -3.48000005E-02     1.56653824E-03
  -3.44999991E-02     1.68201898E-03
  -3.42000015E-02     1.80451118E-03
  -3.39000002E-02     1.93430693E-03
  -3.35999988E-02     2.07169796E-03
  -3.33000012E-02     2.21697520E-03
  -3.29999998E-02     2.37042783E-03
  -3.26999985E-02     2.53234175E-03
  -3.24000008E-02     2.70299939E-03
  -3.20999995E-02     2.88267783E-03
  -3.18000019E-02     3.07164784E-03
  -3.15000005E-02     3.27017205E-03
  -3.11999992E-02     3.47850309E-03
  -3.08999997E-02     3.69688170E-03
  -3.06000002E-02     3.92553443E-03
  -3.03000007E-02     4.16467059E-03
  -2.99999993E-02     4.41448018E-03
  -2.96999998E-02     4.67513129E-03
  -2.94000003E-02     4.94676735E-03
  -2.91000009E-02     5.22950385E-03
  -2.87999995E-02     5.52342739E-03
  -2.85000000E-02     5.82859106E-03
  -2.82000005E-02     6.14501350E-03
  -2.78999992E-02     6.47267606E-03
  -2.75999997E-02     6.81152148E-03
  -2.73000002E-02     7.16144964E-03
  -2.70000007E-02     7.52231712E-03
  -2.66999993E-02     7.89393391E-03
  -2.63999999E-02     8.27606115E-03
  -2.61000004E-02     8.66840873E-03
  -2.58000009E-02     9.07063205E-03
  -2.54999995E-02     9.48233064E-03
  -2.52000000E-02     9.90304444E-03
  -2.49000005E-02     1.03322528E-02
  -2.45999992E-02     1.07693709E-02
  -2.42999997E-02     1.12137459E-02
  -2.40000002E-02     1.16646616E-02
  -2.37000007E-02     1.21213282E-02
  -2.33999994E-02     1.25828907E-02
  -2.30999999E-02     1.30484188E-02
  -2.28000004E-02     1.35169150E-02
  -2.25000009E-02     1.39873102E-02
  -2.21999995E-02     1.44584645E-02
  -2.19000001E-02     1.49291679E-02
  -2.16000006E-02     1.53981447E-02
  -2.12999992E-02     1.58640482E-02
  -2.09999997E-02     1.63254701E-02
  -2.07000002E-02     1.67809352E-02
  -2.04000007E-02     1.72289070E-02
  -2.00999994E-02     1.76677946E-02
  -1.97999999E-02     1.80959441E-02
  -1.95000004E-02     1.85116529E-02
  -1.92000009E-02     1.89131703E-02
  -1.88999996E-02     1.92987006E-02
  -1.86000001E-02     1.96664073E-02
  -1.83000006E-02     2.00144202E-02
  -1.79999992E-02     2.03408469E-02
  -1.76999997E-02     2.06437670E-02
  -1.74000002E-02     2.09212527E-02
  -1.71000008E-02     2.11713668E-02
  -1.67999994E-02     2.13921759E-02
  -1.64999999E-02     2.15817560E-02
  -1.62000004E-02     2.17382014E-02
  -1.59000009E-02     2.18596347E-02
  -1.55999996E-02     2.19442137E-02
  -1.53000001E-02     2.19901409E-02
  -1.49999997E-02     2.19956692E-02
  -1.47000002E-02     2.19591204E-02
  -1.43999998E-02     2.18788832E-02
  -1.41000003E-02     2.17534266E-02
  -1.37999998E-02     2.15813126E-02
  -1.35000004E-02     2.13612020E-02
  -1.31999999E-02     2.10918654E-02
  -1.29000004E-02     2.07721908E-02
  -1.26000000E-02     2.04011966E-02
  -1.22999996E-02     1.99780334E-02
  -1.20000001E-02     1.95020027E-02
  -1.16999997E-02     1.89725570E-02
  -1.14000002E-02     1.83893126E-02
  -1.10999998E-02     1.77520495E-02
  -1.08000003E-02     1.70607287E-02
  -1.04999999E-02     1.63154881E-02
  -1.02000004E-02     1.55166527E-02
  -9.89999995E-03     1.46647347E-02
  -9.60000046E-03     1.37604428E-02
  -9.30000003E-03     1.28046768E-02
  -8.99999961E-03     1.17985373E-02
  -8.70000012E-03     1.07433219E-02
  -8.39999970E-03     9.64052603E-03
  -8.10000021E-03     8.49184394E-03
  -7.79999979E-03     7.29916384E-03
  -7.49999983E-03     6.06457144E-03
  -7.19999988E-03     4.79034008E-03
  -6.89999992E-03     3.47893010E-03
  -6.59999996E-03     2.13298295E-03
  -6.30000001E-03     7.55313144E-04
  -6.00000005E-03    -6.51097798E-04
  -5.70000010E-03    -2.08311086E-03
  -5.40000014E-03    -3.53743904E-03
  -5.10000018E-03    -5.01065794E-03
  -4.80000023E-03    -6.49921782E-03
  -4.49999981E-03    -7.99945556E-03
  -4.19999985E-03    -9.50760767E-03
  -3.89999989E-03    -1.10198241E-02
  -3.59999994E-03    -1.25321830E-02
  -3.29999998E-03    -1.40407030E-02
  -3.00000003E-03    -1.55413635E-02
  -2.70000007E-03    -1.70301162E-02
  -2.40000011E-03    -1.85028985E-02
  -2.09999993E-03    -1.99556574E-02
  -1.79999997E-03    -2.13843565E-02
  -1.50000001E-03    -2.27850024E-02
  -1.20000006E-03    -2.41536535E-02
  -8.99999985E-04    -2.54864357E-02
  -6.00000028E-04    -2.67795678E-02
  -3.00000014E-04    -2.80293692E-02
   0.00000000        -2.92322766E-02
   3.00000014E-04    -3.03848665E-02
   6.00000028E-04    -3.14838625E-02
   8.99999985E-04    -3.25261503E-02
   1.20000006E-03    -3.35087962E-02
   1.50000001E-03    -3.44290584E-02
   1.79999997E-03    -3.52843925E-02
   2.09999993E-03    -3.60724740E-02
   2.40000011E-03    -3.67911980E-02
   2.70000007E-03    -3.74386869E-02
   3.00000003E-03    -3.80133092E-02
   3.29999998E-03    -3.85136716E-02
   3.59999994E-03    -3.89386415E-02
   3.89999989E-03    -3.92873324E-02
   4.19999985E-03    -3.95591222E-02
   4.49999981E-03    -3.97536494E-02
   4.80000023E-03    -3.98708060E-02
   5.10000018E-03    -3.99107523E-02
   5.40000014E-03    -3.98739055E-02
   5.70000010E-03    -3.97609361E-02
   6.00000005E-03    -3.95727754E-02
   6.30000001E-03    -3.93105932E-02
   6.59999996E-03    -3.89757976E-02
   6.89999992E-03    -3.85700427E-02
   7.19999988E-03    -3.80951874E-02
   7.49999983E-03    -3.75533253E-02
   7.79999979E-03    -3.69467400E-02
   8.10000021E-03    -3.62779051E-02
   8.39999970E-03    -3.55494842E-02
   8.70000012E-03    -3.47642973E-02
   8.99999961E-03    -3.39253210E-02
   9.30000003E-03    -3.30356695E-02
   9.60000046E-03    -3.20985839E-02
   9.89999995E-03    -3.11174057E-02
   1.02000004E-02    -3.00955754E-02
   1.04999999E-02    -2.90366132E-02
   1.08000003E-02    -2.79440973E-02
   1.10999998E-02    -2.68216580E-02
   1.14000002E-02    -2.56729517E-02
   1.16999997E-02    -2.45016553E-02
   1.20000001E-02    -2.33114455E-02
   1.22999996E-02    -2.21059844E-02
   1.26000000E-02    -2.08889041E-02
   1.29000004E-02    -1.96637958E-02
   1.31999999E-02    -1.84341911E-02
   1.35000004E-02    -1.72035489E-02
   1.37999998E-02    -1.59752481E-02
   1.41000003E-02    -1.47525715E-02
   1.43999998E-02    -1.35386921E-02
   1.47000002E-02    -1.23366695E-02
   1.49999997E-02    -1.11494334E-02
   1.53000001E-02    -9.97978263E-03
   1.55999996E-02    -8.83037038E-03
   1.59000009E-02    -7.70370103E-03
   1.62000004E-02    -6.60212571E-03
   1.64999999E-02    -5.52783348E-03
   1.67999994E-02    -4.48285043E-03
   1.71000008E-02    -3.46903433E-03
   1.74000002E-02    -2.48807366E-03
   1.76999997E-02    -1.54148485E-03
   1.79999992E-02    -6.30611554E-04
   1.83000006E-02     2.43374830E-04
   1.86000001E-02     1.07947493E-03
   1.88999996E-02     1.87685946E-03
   1.92000009E-02     2.63486686E-03
   1.95000004E-02     3.35300015E-03
   1.97999999E-02     4.03092243E-03
   2.00999994E-02     4.66845231E-03
   2.04000007E-02     5.26555954E-03
   2.07000002E-02     5.82235726E-03
   2.09999997E-02     6.33909740E-03
   2.12999992E-02     6.81616226E-03
   2.16000006E-02     7.25405896E-03
   2.19000001E-02     7.65341148E-03
   2.21999995E-02     8.01495370E-03
   2.25000009E-02     8.33951868E-03
   2.28000004E-02     8.62803683E-03
   2.30999999E-02     8.88152141E-03
   2.33999994E-02     9.10106767E-03
   2.37000007E-02     9.28783789E-03
   2.40000002E-02     9.44305770E-03
   2.42999997E-02     9.56800766E-03
   2.45999992E-02     9.66401305E-03
   2.49000005E-02     9.73243918E-03
   2.52000000E-02     9.77468118E-03
   2.54999995E-02     9.79215652E-03
   2.58000009E-02     9.78629757E-03
   2.61000004E-02     9.75854788E-03
   2.63999999E-02     9.71035007E-03
   2.66999993E-02     9.64314211E-03
   2.70000007E-02     9.55835264E-03
   2.73000002E-02     9.45739355E-03
   2.75999997E-02     9.34165437E-03
   2.78999992E-02     9.21250042E-03
   2.82000005E-02     9.07126628E-03
   2.85000000E-02     8.91925301E-03
   2.87999995E-02     8.75772350E-03
   2.91000009E-02     8.58789962E-03
   2.94000003E-02     8.41096137E-03
   2.96999998E-02     8.22804123E-03
   2.99999993E-02     8.04022513E-03
   3.03000007E-02     7.84854684E-03
   3.06000002E-02     7.65399029E-03
   3.08999997E-02     7.45748403E-03
   3.11999992E-02     7.25990394E-03
   3.15000005E-02     7.06207147E-03
   3.18000019E-02     6.86475215E-03
   3.20999995E-02     6.66865846E-03
   3.24000008E-02     6.47444697E-03
   3.26999985E-02     6.28272211E-03
   3.29999998E-02     6.09403662E-03
   3.33000012E-02     5.90889063E-03
   3.35999988E-02     5.72773581E-03
   3.39000002E-02     5.55097684E-03
   3.42000015E-02     5.37897041E-03
   3.44999991E-02     5.21203037E-03
   3.48000005E-02     5.05042635E-03
   3.51000018E-02     4.89438791E-03
   3.53999995E-02     4.74410504E-03
   3.57000008E-02     4.59973048E-03
   3.59999985E-02     4.46138019E-03
   3.62999998E-02     4.32913797E-03
   3.66000012E-02     4.20305459E-03
   3.68999988E-02     4.08315239E-03
   3.72000001E-02     3.96942487E-03
   3.75000015E-02     3.86184081E-03
   3.77999991E-02     3.76034575E-03
   3.81000005E-02     3.66486446E-03
   3.84000018E-02     3.57530219E-03
   3.86999995E-02     3.49154789E-03
   3.90000008E-02     3.41347512E-03
   3.92999984E-02     3.34094465E-03
   3.95999998E-02     3.27380514E-03
   3.99000011E-02     3.21189524E-03
   4.01999988E-02     3.15504451E-03
   4.05000001E-02     3.10307485E-03
   4.08000015E-02     3.05580138E-03
   4.10999991E-02     3.01303319E-03
   4.14000005E-02     2.97457492E-03
   4.17000018E-02     2.94022728E-03
   4.19999994E-02     2.90978840E-03
   4.23000008E-02     2.88305385E-03
   4.25999984E-02     2.85981898E-03
   4.28999998E-02     2.83987867E-03
   4.32000011E-02     2.82302848E-03
   4.34999987E-02     2.80906609E-03
   4.38000001E-02     2.79779104E-03
   4.41000015E-02     2.78900587E-03
   4.43999991E-02     2.78251618E-03
   4.47000004E-02     2.77813105E-03
   4.50000018E-02     2.77566351E-03
   4.52999994E-02     2.77492986E-03
   4.56000008E-02     2.77575105E-03
   4.58999984E-02     2.77795107E-03
   4.61999997E-02     2.78135831E-03
   4.65000011E-02     2.78580491E-03
   4.67999987E-02     2.79112719E-03
   4.71000001E-02     2.79716542E-03
   4.74000014E-02     2.80376431E-03
   4.76999991E-02     2.81077367E-03
   4.80000004E-02     2.81804753E-03
   4.83000018E-02     2.82544619E-03
   4.85999994E-02     2.83283461E-03
   4.89000008E-02     2.84008333E-03
   4.91999984E-02     2.84706941E-03
   4.94999997E-02     2.85367528E-03
   4.98000011E-02     2.85978941E-03
   5.00999987E-02     2.86530587E-03
   5.04000001E-02     2.87012453E-03
   5.07000014E-02     2.87415111E-03
   5.09999990E-02     2.87729618E-03
   5.13000004E-02     2.87947664E-03
   5.16000018E-02     2.88061379E-03
   5.18999994E-02     2.88063497E-03
   5.22000007E-02     2.87947292E-03
   5.24999984E-02     2.87706568E-03
   5.27999997E-02     2.87335739E-03
   5.31000011E-02     2.86829844E-03
   5.33999987E-02     2.86184531E-03
   5.37000000E-02     2.85396026E-03
   5.40000014E-02     2.84461305E-03
   5.42999990E-02     2.83377944E-03
   5.46000004E-02     2.82144127E-03
   5.49000017E-02     2.80758785E-03
   5.51999994E-02     2.79221358E-03
   5.55000007E-02     2.77531915E-03
   5.57999983E-02     2.75691110E-03
   5.60999997E-02     2.73700058E-03
   5.64000010E-02     2.71560438E-03
   5.66999987E-02     2.69274367E-03
   5.70000000E-02     2.66844407E-03
   5.73000014E-02     2.64273537E-03
   5.75999990E-02     2.61565181E-03
   5.79000004E-02     2.58723157E-03
   5.82000017E-02     2.55751633E-03
   5.84999993E-02     2.52655195E-03
   5.88000007E-02     2.49438803E-03
   5.90999983E-02     2.46107765E-03
   5.93999997E-02     2.42667668E-03
   5.97000010E-02     2.39124405E-03
   5.99999987E-02     2.35484121E-03
   6.03000000E-02     2.31753103E-03
   6.06000014E-02     2.27937824E-03
   6.08999990E-02     2.24044733E-03
   6.12000003E-02     2.20080395E-03
   6.15000017E-02     2.16051191E-03
   6.17999993E-02     2.11963523E-03
   6.21000007E-02     2.07823562E-03
   6.23999983E-02     2.03637313E-03
   6.27000034E-02     1.99410622E-03
   6.30000010E-02     1.95149099E-03
   6.32999986E-02     1.90858077E-03
   6.36000037E-02     1.86542689E-03
   6.39000013E-02     1.82207813E-03
   6.41999990E-02     1.77858048E-03
   6.44999966E-02     1.73497724E-03
   6.48000017E-02     1.69130822E-03
   6.50999993E-02     1.64761033E-03
   6.53999969E-02     1.60391617E-03
   6.57000020E-02     1.56025449E-03
   6.59999996E-02     1.51664938E-03
   6.62999973E-02     1.47312006E-03
   6.66000023E-02     1.42968108E-03
   6.69000000E-02     1.38634129E-03
   6.71999976E-02     1.34310476E-03
   6.75000027E-02     1.29997055E-03
   6.78000003E-02     1.25693297E-03
   6.80999979E-02     1.21398235E-03
   6.84000030E-02     1.17110461E-03
   6.87000006E-02     1.12828286E-03
   6.89999983E-02     1.08549686E-03
   6.93000033E-02     1.04272400E-03
   6.96000010E-02     9.99939512E-04
   6.98999986E-02     9.57116601E-04
   7.02000037E-02     9.14226694E-04
   7.05000013E-02     8.71239696E-04
   7.07999989E-02     8.28124059E-04
   7.10999966E-02     7.84847070E-04
   7.14000016E-02     7.41374795E-04
   7.16999993E-02     6.97672600E-04
   7.19999969E-02     6.53705618E-04
   7.23000020E-02     6.09438983E-04
   7.25999996E-02     5.64838760E-04
   7.28999972E-02     5.19872585E-04
   7.32000023E-02     4.74510336E-04
   7.34999999E-02     4.28724859E-04
   7.37999976E-02     3.82492814E-04
   7.41000026E-02     3.35795281E-04
   7.44000003E-02     2.88618263E-04
   7.46999979E-02     2.40953013E-04
   7.50000030E-02     1.92796535E-04
   7.53000006E-02     1.44151534E-04
   7.55999982E-02     9.50266403E-05
   7.59000033E-02     4.54363908E-05
   7.62000009E-02    -4.59873309E-06
   7.64999986E-02    -5.50522709E-05
   7.68000036E-02    -1.05891682E-04
   7.71000013E-02    -1.57078248E-04
   7.73999989E-02    -2.08566795E-04
   7.76999965E-02    -2.60305562E-04
   7.80000016E-02    -3.12235788E-04
   7.82999992E-02    -3.64291656E-04
   7.85999969E-02    -4.16399940E-04
   7.89000019E-02    -4.68479993E-04
   7.91999996E-02    -5.20443718E-04
   7.94999972E-02    -5.72195859E-04
   7.98000023E-02    -6.23634143E-04
   8.00999999E-02    -6.74649898E-04
   8.03999975E-02    -7.25128572E-04
   8.07000026E-02    -7.74950371E-04
   8.10000002E-02    -8.23991082E-04
   8.12999979E-02    -8.72122531E-04
   8.16000029E-02    -9.19213751E-04
   8.19000006E-02    -9.65131156E-04
   8.21999982E-02    -1.00973959E-03
   8.25000033E-02    -1.05290243E-03
   8.28000009E-02    -1.09448261E-03
   8.30999985E-02    -1.13434251E-03
   8.34000036E-02    -1.17234478E-03
   8.37000012E-02    -1.20835286E-03
   8.39999989E-02    -1.24223146E-03
   8.42999965E-02    -1.27384684E-03
   8.46000016E-02    -1.30306825E-03
   8.48999992E-02    -1.32976810E-03
   8.51999968E-02    -1.35382300E-03
   8.55000019E-02    -1.37511501E-03
   8.57999995E-02    -1.39353215E-03
   8.60999972E-02    -1.40896963E-03
   8.64000022E-02    -1.42133038E-03
   8.66999999E-02    -1.43052638E-03
   8.69999975E-02    -1.43647881E-03
   8.73000026E-02    -1.43911899E-03
   8.76000002E-02    -1.43838872E-03
   8.78999978E-02    -1.43424049E-03
   8.82000029E-02    -1.42663787E-03
   8.85000005E-02    -1.41555537E-03
   8.87999982E-02    -1.40097924E-03
   8.91000032E-02    -1.38290680E-03
   8.94000009E-02    -1.36134680E-03
   8.96999985E-02    -1.33632007E-03
   9.00000036E-02    -1.30785885E-03
   9.03000012E-02    -1.27600750E-03
   9.05999988E-02    -1.24082237E-03
   9.08999965E-02    -1.20237190E-03
   9.12000015E-02    -1.16073724E-03
   9.14999992E-02    -1.11601129E-03
   9.17999968E-02    -1.06829929E-03
   9.21000019E-02    -1.01771823E-03
   9.23999995E-02    -9.64396750E-04
   9.26999971E-02    -9.08474205E-04
   9.30000022E-02    -8.50100245E-04
   9.32999998E-02    -7.89434183E-04
   9.35999975E-02    -7.26644008E-04
   9.39000025E-02    -6.61905564E-04
   9.42000002E-02    -5.95401798E-04
   9.44999978E-02    -5.27321768E-04
   9.48000029E-02    -4.57859860E-04
   9.51000005E-02    -3.87215114E-04
   9.53999981E-02    -3.15590354E-04
   9.57000032E-02    -2.43191520E-04
   9.60000008E-02    -1.70227053E-04
   9.62999985E-02    -9.69071116E-05
   9.66000035E-02    -2.34429572E-05
   9.69000012E-02     4.99538219E-05
   9.71999988E-02     1.23072081E-04
   9.74999964E-02     1.95701956E-04
   9.78000015E-02     2.67635769E-04
   9.80999991E-02     3.38668964E-04
   9.83999968E-02     4.08601074E-04
   9.87000018E-02     4.77236725E-04
   9.89999995E-02     5.44386508E-04
   9.92999971E-02     6.09868148E-04
   9.96000022E-02     6.73506933E-04
   9.98999998E-02     7.35136855E-04
  0.100199997         7.94601045E-04
  0.100500003         8.51752236E-04
  0.100800000         9.06453410E-04
  0.101099998         9.58577963E-04
  0.101400003         1.00800977E-03
  0.101700000         1.05464377E-03
  0.101999998         1.09838578E-03
  0.102300003         1.13915245E-03
  0.102600001         1.17687206E-03
  0.102899998         1.21148396E-03
  0.103200004         1.24293903E-03
  0.103500001         1.27119990E-03
  0.103799999         1.29624119E-03
  0.104099996         1.31804904E-03
  0.104400001         1.33662228E-03
  0.104699999         1.35197118E-03
  0.104999997         1.36411842E-03
  0.105300002         1.37309846E-03
  0.105599999         1.37895672E-03
  0.105899997         1.38174999E-03
  0.106200002         1.38154533E-03
  0.106500000         1.37841923E-03
  0.106799997         1.37245771E-03
  0.107100002         1.36375439E-03
  0.107400000         1.35241076E-03
  0.107699998         1.33853510E-03
  0.108000003         1.32224173E-03
  0.108300000         1.30365090E-03
  0.108599998         1.28288788E-03
  0.108900003         1.26008247E-03
  0.109200001         1.23536913E-03
  0.109499998         1.20888627E-03
  0.109800003         1.18077570E-03
  0.110100001         1.15118222E-03
  0.110399999         1.12025323E-03
  0.110699996         1.08813809E-03
  0.111000001         1.05498673E-03
  0.111299999         1.02094968E-03
  0.111599997         9.86176543E-04
  0.111900002         9.50815389E-04
  0.112199999         9.15011857E-04
  0.112499997         8.78908439E-04
  0.112800002         8.42643436E-04
  0.113100000         8.06350959E-04
  0.113399997         7.70160172E-04
  0.113700002         7.34194939E-04
  0.114000000         6.98573946E-04
  0.114299998         6.63410465E-04
  0.114600003         6.28812297E-04
  0.114900000         5.94881480E-04
  0.115199998         5.61714638E-04
  0.115500003         5.29402343E-04
  0.115800001         4.98028996E-04
  0.116099998         4.67672508E-04
  0.116400003         4.38403833E-04
  0.116700001         4.10286564E-04
  0.116999999         3.83376435E-04
  0.117299996         3.57720943E-04
  0.117600001         3.33359261E-04
  0.117899999         3.10321921E-04
  0.118199997         2.88630981E-04
  0.118500002         2.68300180E-04
  0.118799999         2.49335280E-04
  0.119099997         2.31734521E-04
  0.119400002         2.15489068E-04
  0.119700000         2.00583658E-04
  0.119999997         1.86996942E-04
  0.120300002         1.74702058E-04
  0.120600000         1.63666817E-04
  0.120899998         1.53854024E-04
  0.121200003         1.45221566E-04
  0.121500000         1.37722513E-04
  0.121799998         1.31305045E-04
  0.122100003         1.25912615E-04
  0.122400001         1.21483972E-04
  0.122699998         1.17953423E-04
  0.123000003         1.15251089E-04
  0.123300001         1.13303431E-04
  0.123599999         1.12033835E-04
  0.123899996         1.11363319E-04
  0.124200001         1.11211317E-04
  0.124499999         1.11496483E-04
  0.124799997         1.12137466E-04
  0.125100002         1.13053648E-04
  0.125400007         1.14165690E-04
  0.125699997         1.15396077E-04
  0.126000002         1.16669369E-04
  0.126300007         1.17912488E-04
  0.126599997         1.19054777E-04
  0.126900002         1.20028104E-04
  0.127200007         1.20766876E-04
  0.127499998         1.21208148E-04
  0.127800003         1.21291770E-04
  0.128099993         1.20960634E-04
  0.128399998         1.20161028E-04
  0.128700003         1.18843127E-04
  0.128999993         1.16961455E-04
  0.129299998         1.14475530E-04
  0.129600003         1.11350346E-04
  0.129899994         1.07556931E-04
  0.130199999         1.03072714E-04
  0.130500004         9.78817916E-05
  0.130799994         9.19750528E-05
  0.131099999         8.53500969E-05
  0.131400004         7.80110713E-05
  0.131699994         6.99683660E-05
  0.131999999         6.12381991E-05
  0.132300004         5.18422530E-05
  0.132599995         4.18072705E-05
  0.132900000         3.11647345E-05
  0.133200005         1.99506358E-05
  0.133499995         8.20534024E-06
  0.133800000        -4.02645264E-06
  0.134100005        -1.66956706E-05
  0.134399995        -2.97487986E-05
  0.134700000        -4.31278058E-05
  0.135000005        -5.67701354E-05
  0.135299996        -7.06087812E-05
  0.135600001        -8.45724790E-05
  0.135900006        -9.85861043E-05
  0.136199996        -1.12571121E-04
  0.136500001        -1.26446263E-04
  0.136800006        -1.40128264E-04
  0.137099996        -1.53532616E-04
  0.137400001        -1.66574420E-04
  0.137700006        -1.79169074E-04
  0.137999997        -1.91233004E-04
  0.138300002        -2.02684154E-04
  0.138600007        -2.13442414E-04
  0.138899997        -2.23429888E-04
  0.139200002        -2.32571067E-04
  0.139500007        -2.40792942E-04
  0.139799997        -2.48025026E-04
  0.140100002        -2.54199462E-04
  0.140400007        -2.59251159E-04
  0.140699998        -2.63118156E-04
  0.141000003        -2.65741779E-04
  0.141299993        -2.67067342E-04
  0.141599998        -2.67044670E-04
  0.141900003        -2.65628711E-04
  0.142199993        -2.62780319E-04
  0.142499998        -2.58466782E-04
  0.142800003        -2.52662605E-04
  0.143099993        -2.45349656E-04
  0.143399999        -2.36517721E-04
  0.143700004        -2.26164426E-04
  0.143999994        -2.14295287E-04
  0.144299999        -2.00923459E-04
  0.144600004        -1.86069476E-04
  0.144899994        -1.69760853E-04
  0.145199999        -1.52031804E-04
  0.145500004        -1.32922898E-04
  0.145799994        -1.12480913E-04
  0.146100000        -9.07586582E-05
  0.146400005        -6.78150391E-05
  0.146699995        -4.37151466E-05
  0.147000000        -1.85303888E-05
  0.147300005         7.66133326E-06
  0.147599995         3.47755158E-05
  0.147900000         6.27210393E-05
  0.148200005         9.14002958E-05
  0.148499995         1.20709468E-04
  0.148800001         1.50539010E-04
  0.149100006         1.80774237E-04
  0.149399996         2.11296137E-04
  0.149700001         2.41982169E-04
  0.150000006         2.72707170E-04
  0.150299996         3.03344161E-04
  0.150600001         3.33765202E-04
  0.150900006         3.63841973E-04
  0.151199996         3.93446418E-04
  0.151500002         4.22451034E-04
  0.151800007         4.50729189E-04
  0.152099997         4.78155445E-04
  0.152400002         5.04605530E-04
  0.152700007         5.29956713E-04
  0.152999997         5.54087979E-04
  0.153300002         5.76880528E-04
  0.153600007         5.98218059E-04
  0.153899997         6.17987651E-04
  0.154200003         6.36080338E-04
  0.154499993         6.52392104E-04
  0.154799998         6.66824752E-04
  0.155100003         6.79286662E-04
  0.155399993         6.89693843E-04
  0.155699998         6.97970216E-04
  0.156000003         7.04048551E-04
  0.156299993         7.07870466E-04
  0.156599998         7.09386892E-04
  0.156900004         7.08557782E-04
  0.157199994         7.05352286E-04
  0.157499999         6.99748343E-04
  0.157800004         6.91732625E-04
  0.158099994         6.81300415E-04
  0.158399999         6.68455556E-04
  0.158700004         6.53210387E-04
  0.158999994         6.35585980E-04
  0.159299999         6.15612254E-04
  0.159600005         5.93328441E-04
  0.159899995         5.68783318E-04
  0.160200000         5.42035268E-04
  0.160500005         5.13152743E-04
  0.160799995         4.82213945E-04
  0.161100000         4.49307001E-04
  0.161400005         4.14529321E-04
  0.161699995         3.77987162E-04
  0.162000000         3.39794991E-04
  0.162300006         3.00074724E-04
  0.162599996         2.58954766E-04
  0.162900001         2.16569373E-04
  0.163200006         1.73057691E-04
  0.163499996         1.28563232E-04
  0.163800001         8.32332589E-05
  0.164100006         3.72183567E-05
  0.164399996        -9.32789771E-06
  0.164700001        -5.62491769E-05
  0.165000007        -1.03386650E-04
  0.165299997        -1.50579217E-04
  0.165600002        -1.97663830E-04
  0.165900007        -2.44475988E-04
  0.166199997        -2.90850207E-04
  0.166500002        -3.36620782E-04
  0.166800007        -3.81622725E-04
  0.167099997        -4.25692473E-04
  0.167400002        -4.68669110E-04
  0.167699993        -5.10395155E-04
  0.167999998        -5.50717639E-04
  0.168300003        -5.89488889E-04
  0.168599993        -6.26567053E-04
  0.168899998        -6.61816914E-04
  0.169200003        -6.95109949E-04
  0.169499993        -7.26324914E-04
  0.169799998        -7.55347603E-04
  0.170100003        -7.82071205E-04
  0.170399994        -8.06396303E-04
  0.170699999        -8.28230928E-04
  0.171000004        -8.47490795E-04
  0.171299994        -8.64099595E-04
  0.171599999        -8.77989340E-04
  0.171900004        -8.89100833E-04
  0.172199994        -8.97384249E-04
  0.172499999        -9.02799657E-04
  0.172800004        -9.05317371E-04
  0.173099995        -9.04918474E-04
  0.173400000        -9.01595224E-04
  0.173700005        -8.95350939E-04
  0.173999995        -8.86200112E-04
  0.174300000        -8.74168123E-04
  0.174600005        -8.59291060E-04
  0.174899995        -8.41615314E-04
  0.175200000        -8.21196765E-04
  0.175500005        -7.98100838E-04
  0.175799996        -7.72401458E-04
  0.176100001        -7.44181161E-04
  0.176400006        -7.13530637E-04
  0.176699996        -6.80548255E-04
  0.177000001        -6.45340362E-04
  0.177300006        -6.08020870E-04
  0.177599996        -5.68711315E-04
  0.177900001        -5.27540746E-04
  0.178200006        -4.84645425E-04
  0.178499997        -4.40168689E-04
  0.178800002        -3.94260394E-04
  0.179100007        -3.47076420E-04
  0.179399997        -2.98778032E-04
  0.179700002        -2.49530916E-04
  0.180000007        -1.99504531E-04
  0.180299997        -1.48870982E-04
  0.180600002        -9.78042808E-05
  0.180899993        -4.64794684E-05
  0.181199998         4.92817026E-06
  0.181500003         5.62437344E-05
  0.181799993         1.07293272E-04
  0.182099998         1.57904215E-04
  0.182400003         2.07905803E-04
  0.182699993         2.57129344E-04