  -5.99999987E-02     0.00000000    
  -5.97000010E-02     0.00000000    
  -5.93999997E-02     0.00000000    
  -5.90999983E-02     0.00000000    
  -5.88000007E-02     0.00000000    
  -5.84999993E-02     0.00000000    
  -5.82000017E-02     0.00000000    
  -5.79000004E-02     0.00000000    
  -5.75999990E-02     0.00000000    
  -5.73000014E-02     0.00000000    
  -5.70000000E-02     0.00000000    
  -5.66999987E-02     0.00000000    
  -5.64000010E-02     0.00000000    
  -5.60999997E-02     0.00000000    
  -5.57999983E-02     0.00000000    
  -5.55000007E-02     0.00000000    
  -5.51999994E-02     0.00000000    
  -5.49000017E-02     0.00000000    
  -5.46000004E-02     0.00000000    
  -5.42999990E-02     0.00000000    
  -5.40000014E-02     1.40129846E-45
  -5.37000000E-02     4.20389539E-45
  -5.33999987E-02     1.96181785E-44
  -5.31000011E-02     8.12753109E-44
  -5.27999997E-02     3.09686961E-43
  -5.24999984E-02     1.09021021E-42
  -5.22000007E-02     3.53967992E-42
  -5.18999994E-02     1.06526709E-41
  -5.16000018E-02     2.97888028E-41
  -5.13000004E-02     7.73881090E-41
  -5.09999990E-02     1.86325052E-40
  -5.07000014E-02     4.13171451E-40
  -5.04000001E-02     8.32797283E-40
  -5.00999987E-02     1.48325621E-39
  -4.98000011E-02     2.17230409E-39
  -4.94999997E-02     1.96306781E-39
  -4.91999984E-02    -1.98868354E-39
  -4.89000008E-02    -1.67502166E-38
  -4.85999994E-02    -5.77041143E-38
  -4.83000018E-02    -1.54874925E-37
  -4.80000004E-02    -3.61053002E-37
  -4.76999991E-02    -7.58933114E-37
  -4.74000014E-02    -1.45973328E-36
  -4.71000001E-02    -2.57767225E-36
  -4.67999987E-02    -4.15304615E-36
  -4.65000011E-02    -5.98315468E-36
  -4.61999997E-02    -7.31047499E-36
  -4.58999984E-02    -6.32268737E-36
  -4.56000008E-02     5.41492891E-37
  -4.52999994E-02     1.93866799E-35
  -4.50000018E-02     5.94711922E-35
  -4.47000004E-02     1.33047995E-34
  -4.43999991E-02     2.53447005E-34
  -4.41000015E-02     4.29971359E-34
  -4.38000001E-02     6.57871750E-34
  -4.34999987E-02     9.01774338E-34
  -4.32000011E-02     1.07189509E-33
  -4.28999998E-02     9.94689085E-34
  -4.25999984E-02     3.83741577E-34
  -4.23000008E-02    -1.17706749E-33
  -4.19999994E-02    -4.21817589E-33
  -4.17000018E-02    -9.30852964E-33
  -4.14000005E-02    -1.68852975E-32
  -4.10999991E-02    -2.69558957E-32
  -4.08000015E-02    -3.86522467E-32
  -4.05000001E-02    -4.96488436E-32
  -4.01999988E-02    -5.55111220E-32
  -3.99000011E-02    -4.91206734E-32
  -3.95999998E-02    -2.04228317E-32
  -3.92999984E-02     4.31538876E-32
  -3.90000008E-02     1.55176363E-31
  -3.86999995E-02     3.27133895E-31
  -3.84000018E-02     5.63453986E-31
  -3.81000005E-02     8.54494961E-31
  -3.77999991E-02     1.16784593E-30
  -3.75000015E-02     1.43891380E-30
  -3.72000001E-02     1.56260514E-30
  -3.68999988E-02     1.38882589E-30
  -3.66000012E-02     7.25392204E-31
  -3.62999998E-02    -6.47443386E-31
  -3.59999985E-02    -2.94651727E-30
  -3.57000008E-02    -6.33562115E-30
  -3.53999995E-02    -1.08535970E-29
  -3.51000018E-02    -1.63213294E-29
  -3.48000005E-02    -2.22324282E-29
  -3.44999991E-02    -2.76379644E-29
  -3.42000015E-02    -3.10426594E-29
  -3.39000002E-02    -3.03385575E-29
  -3.35999988E-02    -2.28119059E-29
  -3.33000012E-02    -5.26972312E-30
  -3.29999998E-02     2.56579038E-29
  -3.26999985E-02     7.29771509E-29
  -3.24000008E-02     1.38490517E-28
  -3.20999995E-02     2.21613388E-28
  -3.18000019E-02     3.17843561E-28
  -3.15000005E-02     4.16955744E-28
  -3.11999992E-02     5.01112383E-28
  -3.08999997E-02     5.43248841E-28
  -3.06000002E-02     5.06299923E-28
  -3.03000007E-02     3.44058694E-28
  -2.99999993E-02     4.65096509E-30
  -2.96999998E-02    -5.62307266E-28
  -2.94000003E-02    -1.39392820E-27
  -2.91000009E-02    -2.49716000E-27
  -2.87999995E-02    -3.82718680E-27
  -2.85000000E-02    -5.26291596E-27
  -2.82000005E-02    -6.58323222E-27
  -2.78999992E-02    -7.44988452E-27
  -2.75999997E-02    -7.40507430E-27
  -2.73000002E-02    -5.89343538E-27
  -2.70000007E-02    -2.31844776E-27
  -2.66999993E-02     3.85845158E-27
  -2.63999999E-02     1.29724755E-26
  -2.61000004E-02     2.49684214E-26
  -2.58000009E-02     3.91882185E-26
  -2.54999995E-02     5.41638985E-26
  -2.52000000E-02     6.74622691E-26
  -2.49000005E-02     7.56411913E-26
  -2.45999992E-02     7.43851892E-26
  -2.42999997E-02     5.88855392E-26
  -2.40000002E-02     2.45123273E-26
  -2.37000007E-02    -3.22098255E-26
  -2.33999994E-02    -1.12366247E-25
  -2.30999999E-02    -2.13273254E-25
  -2.28000004E-02    -3.27154694E-25
  -2.25000009E-02    -4.40152880E-25
  -2.21999995E-02    -5.32013711E-25
  -2.19000001E-02    -5.76806515E-25
  -2.16000006E-02    -5.44999348E-25
  -2.12999992E-02    -4.07093223E-25
  -2.09999997E-02    -1.38814350E-25
  -2.07000002E-02     2.72423302E-25
  -2.04000007E-02     8.20418398E-25
  -2.00999994E-02     1.47344436E-24
  -1.97999999E-02     2.16919394E-24
  -1.95000004E-02     2.81293363E-24
  -1.92000009E-02     3.28040254E-24
  -1.88999996E-02     3.42673920E-24
  -1.86000001E-02     3.10214108E-24
  -1.83000006E-02     2.17408389E-24
  -1.79999992E-02     5.54754599E-25
  -1.76999997E-02    -1.76895077E-24
  -1.74000002E-02    -4.70682970E-24
  -1.71000008E-02    -8.04319266E-24
  -1.67999994E-02    -1.14266983E-23
  -1.64999999E-02    -1.43776463E-23
  -1.62000004E-02    -1.63170908E-23
  -1.59000009E-02    -1.66200765E-23
  -1.55999996E-02    -1.46922756E-23
  -1.53000001E-02    -1.00655441E-23
  -1.49999997E-02    -2.50383465E-24
  -1.47000002E-02     7.89296988E-24
  -1.43999998E-02     2.06028065E-23
  -1.41000003E-02     3.46297663E-23
  -1.37999998E-02     4.85035103E-23
  -1.35000004E-02     6.03431829E-23
  -1.31999999E-02     6.79936758E-23
  -1.29000004E-02     6.92340555E-23
  -1.26000000E-02     6.20483657E-23
  -1.22999996E-02     4.49383481E-23
  -1.20000001E-02     1.72480461E-23
  -1.16999997E-02    -2.05382161E-23
  -1.14000002E-02    -6.65673648E-23
  -1.10999998E-02    -1.17501993E-22
  -1.08000003E-02    -1.68556048E-22
  -1.04999999E-02    -2.13709891E-22
  -1.02000004E-02    -2.46117509E-22
  -9.89999995E-03    -2.58699272E-22
  -9.60000046E-03    -2.44892137E-22
  -9.30000003E-03    -1.99506836E-22
  -8.99999961E-03    -1.19621542E-22
  -8.70000012E-03    -5.42516250E-24
  -8.39999970E-03     1.39087348E-22
  -8.10000021E-03     3.05667798E-22
  -7.79999979E-03     4.81710780E-22
  -7.49999983E-03     6.50573008E-22
  -7.19999988E-03     7.92372586E-22
  -6.89999992E-03     8.85291969E-22
  -6.59999996E-03     9.07368664E-22
  -6.30000001E-03     8.38709695E-22
  -6.00000005E-03     6.64013279E-22
  -5.70000010E-03     3.75228846E-22
  -5.40000014E-03    -2.58697326E-23
  -5.10000018E-03    -5.25468756E-22
  -4.80000023E-03    -1.09616456E-21
  -4.49999981E-03    -1.69640304E-21
  -4.19999985E-03    -2.27122107E-21
  -3.89999989E-03    -2.75455870E-21
  -3.59999994E-03    -3.07331909E-21
  -3.29999998E-03    -3.15321835E-21
  -3.00000003E-03    -2.92628591E-21
  -2.70000007E-03    -2.33965169E-21
  -2.40000011E-03    -1.36500745E-21
  -2.09999993E-03    -7.88225083E-24
  -1.79999997E-03     1.68435914E-21
  -1.50000001E-03     3.61703342E-21
  -1.20000006E-03     5.64646896E-21
  -8.99999985E-04     7.58334709E-21
  -6.00000028E-04     9.20198850E-21
  -3.00000014E-04     1.02560484E-20
   0.00000000         1.05004528E-20
   3.00000014E-04     9.71858783E-21
   6.00000028E-04     7.75289650E-21
   8.99999985E-04     4.53612156E-21
   1.20000006E-03     1.19704202E-22
   1.50000001E-03    -5.30468786E-21
   1.79999997E-03    -1.13946270E-20
   2.09999993E-03    -1.76611575E-20
   2.40000011E-03    -2.34905982E-20
   2.70000007E-03    -2.81852294E-20
   3.00000003E-03    -3.10221261E-20
   3.29999998E-03    -3.13270068E-20
   3.59999994E-03    -2.85575285E-20
   3.89999989E-03    -2.23880456E-20
   4.19999985E-03    -1.27862154E-20
   4.49999981E-03    -7.08946897E-23
   4.80000023E-03     1.50588796E-20
   5.10000018E-03     3.15322704E-20
   5.40000014E-03     4.79577606E-20
   5.70000010E-03     6.27179262E-20
   6.00000005E-03     7.41036537E-20
   6.30000001E-03     8.04779269E-20
   6.59999996E-03     8.04543781E-20
   6.89999992E-03     7.30717911E-20
   7.19999988E-03     5.79439954E-20
   7.49999983E-03     3.53650602E-20
   7.79999979E-03     6.35339617E-21
   8.10000021E-03    -2.73758558E-20
   8.39999970E-03    -6.35121682E-20
   8.70000012E-03    -9.93176181E-20
   8.99999961E-03    -1.31845055E-19
   9.30000003E-03    -1.58182640E-19
   9.60000046E-03    -1.75696122E-19
   9.89999995E-03    -1.82240594E-19
   1.02000004E-02    -1.76317128E-19
   1.04999999E-02    -1.57159340E-19
   1.08000003E-02    -1.24746979E-19
   1.10999998E-02    -7.97575431E-20
   1.14000002E-02    -2.34798303E-20
   1.16999997E-02     4.22774499E-20
   1.20000001E-02     1.15246435E-19
   1.22999996E-02     1.92699827E-19
   1.26000000E-02     2.71373583E-19
   1.29000004E-02     3.47318353E-19
   1.31999999E-02     4.15712542E-19
   1.35000004E-02     4.70696736E-19
   1.37999998E-02     5.05312022E-19
   1.41000003E-02     5.11634784E-19
   1.43999998E-02     4.81196140E-19
   1.47000002E-02     4.05748557E-19
   1.49999997E-02     2.78394640E-19
   1.53000001E-02     9.50317433E-20
   1.55999996E-02    -1.44011770E-19
   1.59000009E-02    -4.32346859E-19
   1.62000004E-02    -7.56163641E-19
   1.64999999E-02    -1.09344147E-18
   1.67999994E-02    -1.41402896E-18
   1.71000008E-02    -1.68084693E-18
   1.74000002E-02    -1.85236469E-18
   1.76999997E-02    -1.88635830E-18
   1.79999992E-02    -1.74477145E-18
   1.83000006E-02    -1.39931053E-18
   1.86000001E-02    -8.37207282E-19
   1.88999996E-02    -6.64467982E-20
   1.92000009E-02     8.80330069E-19
   1.95000004E-02     1.94402478E-18
   1.97999999E-02     3.04003847E-18
   2.00999994E-02     4.06242213E-18
   2.04000007E-02     4.89133320E-18
   2.07000002E-02     5.40352426E-18
   2.09999997E-02     5.48517485E-18
   2.12999992E-02     5.04598496E-18
   2.16000006E-02     4.03313083E-18
   2.19000001E-02     2.44348326E-18
   2.21999995E-02     3.32462448E-19
   2.25000009E-02    -2.18195377E-18
   2.28000004E-02    -4.92121138E-18
   2.30999999E-02    -7.65479474E-18
   2.33999994E-02    -1.01154834E-17
   2.37000007E-02    -1.20205672E-17
   2.40000002E-02    -1.30976514E-17
   2.42999997E-02    -1.31130271E-17
   2.45999992E-02    -1.19001536E-17
   2.49000005E-02    -9.38546006E-18
   2.52000000E-02    -5.60868615E-18
   2.54999995E-02    -7.35134746E-19
   2.58000009E-02     4.94228298E-18
   2.61000004E-02     1.10126649E-17
   2.63999999E-02     1.69689766E-17
   2.66999993E-02     2.22417170E-17
   2.70000007E-02     2.62428823E-17
   2.73000002E-02     2.84176841E-17
   2.75999997E-02     2.83004229E-17
   2.78999992E-02     2.55701611E-17
   2.82000005E-02     2.01011837E-17
   2.85000000E-02     1.20029871E-17
   2.87999995E-02     1.64462107E-18
   2.91000009E-02    -1.03412234E-17
   2.94000003E-02    -2.30779156E-17
   2.96999998E-02    -3.54903529E-17
   2.99999993E-02    -4.63760928E-17
   3.03000007E-02    -5.44996119E-17
   3.06000002E-02    -5.87044853E-17
   3.08999997E-02    -5.80355609E-17
   3.11999992E-02    -5.18608164E-17
   3.15000005E-02    -3.99807988E-17
   3.18000019E-02    -2.27127087E-17
   3.20999995E-02    -9.36472782E-19
   3.24000008E-02     2.39079136E-17
   3.26999985E-02     4.98792788E-17
   3.29999998E-02     7.46531363E-17
   3.33000012E-02     9.56954200E-17
   3.35999988E-02     1.10482570E-16
   3.39000002E-02     1.16752017E-16
   3.42000015E-02     1.12761420E-16
   3.44999991E-02     9.75311852E-17
   3.48000005E-02     7.10426385E-17
   3.51000018E-02     3.43657910E-17
   3.53999995E-02    -1.03058275E-17
   3.57000008E-02    -5.97281776E-17
   3.59999985E-02    -1.09793284E-16
   3.62999998E-02    -1.55823622E-16
   3.66000012E-02    -1.92956620E-16
   3.68999988E-02    -2.16590732E-16
   3.72000001E-02    -2.22854818E-16
   3.75000015E-02    -2.09057366E-16
   3.77999991E-02    -1.74069387E-16
   3.81000005E-02    -1.18598390E-16
   3.84000018E-02    -4.53173711E-17
   3.86999995E-02     4.11753138E-17
   3.90000008E-02     1.34575364E-16
   3.92999984E-02     2.27265160E-16
   3.95999998E-02     3.10857677E-16
   3.99000011E-02     3.76854673E-16
   4.01999988E-02     4.17371038E-16
   4.05000001E-02     4.25868711E-16
   4.08000015E-02     3.97840893E-16
   4.10999991E-02     3.31388353E-16
   4.14000005E-02     2.27635525E-16
   4.17000018E-02     9.09443129E-17
   4.19999994E-02    -7.11053984E-17
   4.23000008E-02    -2.47983692E-16
   4.25999984E-02    -4.26727973E-16
   4.28999998E-02    -5.92694788E-16
   4.32000011E-02    -7.30515254E-16
   4.34999987E-02    -8.25209302E-16
   4.38000001E-02    -8.63399000E-16
   4.41000015E-02    -8.34548793E-16
   4.43999991E-02    -7.32148704E-16
   4.47000004E-02    -5.54749300E-16
   4.50000018E-02    -3.06750123E-16
   4.52999994E-02     1.15213728E-18
   4.56000008E-02     3.51945048E-16
   4.58999984E-02     7.22780043E-16
   4.61999997E-02     1.08599396E-15
   4.65000011E-02     1.41067736E-15
   4.67999987E-02     1.66474934E-15
   4.71000001E-02     1.81744556E-15
   4.74000014E-02     1.84207220E-15
   4.76999991E-02     1.71882689E-15
   4.80000004E-02     1.43744922E-15
   4.83000018E-02     9.99435668E-16
   4.85999994E-02     4.19554556E-16
   4.89000008E-02    -2.73580498E-16
   4.91999984E-02    -1.03806566E-15
   4.94999997E-02    -1.82050060E-15
   4.98000011E-02    -2.55902396E-15
   5.00999987E-02    -3.18748324E-15
   5.04000001E-02    -3.64050060E-15
   5.07000014E-02    -3.85909608E-15
   5.09999990E-02    -3.79642285E-15
   5.13000004E-02    -3.42312336E-15
   5.16000018E-02    -2.73178735E-15
   5.18999994E-02    -1.74002918E-15
   5.22000007E-02    -4.91777324E-16
   5.24999984E-02     9.43506506E-16
   5.27999997E-02     2.47380271E-15
   5.31000011E-02     3.98964673E-15
   5.33999987E-02     5.37113629E-15
   5.37000000E-02     6.49641025E-15
   5.40000014E-02     7.25102724E-15
   5.42999990E-02     7.53756493E-15
   5.46000004E-02     7.28470442E-15
   5.49000017E-02     6.45505386E-15
   5.51999994E-02     5.05104254E-15
   5.55000007E-02     3.11830521E-15
   5.57999983E-02     7.46151535E-16
   5.60999997E-02    -1.93510945E-15
   5.64000010E-02    -4.76000287E-15
   5.66999987E-02    -7.53668656E-15
   5.70000000E-02    -1.00583028E-14
   5.73000014E-02    -1.21163049E-14
   5.75999990E-02    -1.35149943E-14
   5.79000004E-02    -1.40864112E-14
   5.82000017E-02    -1.37046153E-14
   5.84999993E-02    -1.22983848E-14
   5.88000007E-02    -9.86136340E-15
   5.90999983E-02    -6.45877149E-15
   5.93999997E-02    -2.22991249E-15
   5.97000010E-02     2.61408132E-15
   5.99999987E-02     7.79760574E-15
   6.03000000E-02     1.29930670E-14
   6.06000014E-02     1.78381886E-14
   6.08999990E-02     2.19574826E-14
   6.12000003E-02     2.49868434E-14
   6.15000017E-02     2.65999228E-14
   6.17999993E-02     2.65345810E-14
   6.21000007E-02     2.46176167E-14
   6.23999983E-02     2.07857684E-14
   6.27000034E-02     1.51011422E-14
   6.30000010E-02     7.75935204E-15
   6.32999986E-02    -9.10918078E-16
   6.36000037E-02    -1.04577644E-14
   6.39000013E-02    -2.03254721E-14
   6.41999990E-02    -2.98829734E-14
   6.44999966E-02    -3.84600731E-14
   6.48000017E-02    -4.53895175E-14
   6.50999993E-02    -5.00523187E-14
   6.53999969E-02    -5.19234077E-14
   6.57000020E-02    -5.06143758E-14
   6.59999996E-02    -4.59100904E-14
   6.62999973E-02    -3.77962737E-14
   6.66000023E-02    -2.64755479E-14
   6.69000000E-02    -1.23702233E-14
   6.71999976E-02     3.88915093E-15
   6.75000027E-02     2.14893614E-14
   6.78000003E-02     3.94732871E-14
   6.80999979E-02     5.67898965E-14
   6.84000030E-02     7.23527615E-14
   6.87000006E-02     8.51037584E-14
   6.89999983E-02     9.40781131E-14
   6.93000033E-02     9.84669499E-14
   6.96000010E-02     9.76733614E-14
   6.98999986E-02     9.13584190E-14
   7.02000037E-02     7.94740996E-14
   7.05000013E-02     6.22806860E-14
   7.07999989E-02     4.03470456E-14
   7.10999966E-02     1.45332541E-14
   7.14000016E-02    -1.40441823E-14
   7.16999993E-02    -4.40631181E-14
   7.19999969E-02    -7.40602783E-14
   7.23000020E-02    -1.02506328E-13
   7.25999996E-02    -1.27887542E-13
   7.28999972E-02    -1.48789536E-13
   7.32000023E-02    -1.63978247E-13
   7.34999999E-02    -1.72473052E-13
   7.37999976E-02    -1.73607331E-13
   7.41000026E-02    -1.67071990E-13
   7.44000003E-02    -1.52938724E-13
   7.46999979E-02    -1.31660348E-13
   7.50000030E-02    -1.04047508E-13
   7.53000006E-02    -7.12223114E-14
   7.55999982E-02    -3.45511278E-14
   7.59000033E-02     4.43938353E-15
   7.62000009E-02     4.41576266E-14
   7.64999986E-02     8.30472233E-14
   7.68000036E-02     1.19684590E-13
   7.71000013E-02     1.52866475E-13
   7.73999989E-02     1.81680165E-13
   7.76999965E-02     2.05550461E-13
   7.80000016E-02     2.24258532E-13
   7.82999992E-02     2.37930308E-13
   7.85999969E-02     2.46994048E-13
   7.89000019E-02     2.52109287E-13
   7.91999996E-02     2.54071964E-13
   7.94999972E-02     2.53702305E-13
   7.98000023E-02     2.51723880E-13
   8.00999999E-02     2.48643608E-13
   8.03999975E-02     2.44642306E-13
   8.07000026E-02     2.39485515E-13
   8.10000002E-02     2.32462975E-13
   8.12999979E-02     2.22363835E-13
   8.16000029E-02     2.07491901E-13
   8.19000006E-02     1.85723683E-13
   8.21999982E-02     1.54608558E-13
   8.25000033E-02     1.11508262E-13
   8.28000009E-02     5.37707391E-14
   8.30999985E-02    -2.10690450E-14
   8.34000036E-02    -1.15070063E-13
   8.37000012E-02    -2.29657818E-13
   8.39999989E-02    -3.65399415E-13
   8.42999965E-02    -5.21791649E-13
   8.46000016E-02    -6.97073584E-13
   8.48999992E-02    -8.88073252E-13
   8.51999968E-02    -1.09009871E-12
   8.55000019E-02    -1.29688198E-12
   8.57999995E-02    -1.50058319E-12
   8.60999972E-02    -1.69186095E-12
   8.64000022E-02    -1.86001410E-12
   8.66999999E-02    -1.99319576E-12
   8.69999975E-02    -2.07870353E-12
   8.73000026E-02    -2.10333920E-12
   8.76000002E-02    -2.05384060E-12
   8.78999978E-02    -1.91737490E-12
   8.82000029E-02    -1.68208676E-12
   8.85000005E-02    -1.33769395E-12
   8.87999982E-02    -8.76114394E-13
   8.91000032E-02    -2.92115697E-13
   8.94000009E-02     4.16029353E-13
   8.96999985E-02     1.24589575E-12
   9.00000036E-02     2.19028463E-12
   9.03000012E-02     3.23664316E-12
   9.05999988E-02     4.36654532E-12
   9.08999965E-02     5.55525200E-12
   9.12000015E-02     6.77137513E-12
   9.14999992E-02     7.97666447E-12
   9.17999968E-02     9.12594739E-12
   9.21000019E-02     1.01672542E-11
   9.23999995E-02     1.10421516E-11
   9.26999971E-02     1.16863273E-11
   9.30000022E-02     1.20304652E-11
   9.32999998E-02     1.20014337E-11
   9.35999975E-02     1.15238444E-11
   9.39000025E-02     1.05219973E-11
   9.42000002E-02     8.92225356E-12
   9.44999978E-02     6.65585078E-12
   9.48000029E-02     3.66218210E-12
   9.51000005E-02    -1.07464452E-13
   9.53999981E-02    -4.68570929E-12
   9.57000032E-02    -1.00844506E-11
   9.60000008E-02    -1.62898289E-11
   9.62999985E-02    -2.32568392E-11
   9.66000035E-02    -3.09036269E-11
   9.69000012E-02    -3.91055625E-11
   9.71999988E-02    -4.76891235E-11
   9.74999964E-02    -5.64256905E-11
   9.78000015E-02    -6.50253115E-11
   9.80999991E-02    -7.31305225E-11
   9.83999968E-02    -8.03102515E-11
   9.87000018E-02    -8.60539140E-11
   9.89999995E-02    -8.97657296E-11
   9.92999971E-02    -9.07592126E-11
   9.96000022E-02    -8.82519960E-11
   9.98999998E-02    -8.13608833E-11
  0.100199997        -6.90970475E-11
  0.100500003        -5.03614823E-11
  0.100800000        -2.39404607E-11
  0.101099998         1.14990803E-11
  0.101400003         5.74143302E-11
  0.101700000         1.15391856E-10
  0.101999998         1.87153515E-10
  0.102300003         2.74563289E-10
  0.102600001         3.79635517E-10
  0.102899998         5.04544573E-10
  0.103200004         6.51636800E-10
  0.103500001         8.23444812E-10
  0.103799999         1.02270492E-09
  0.104099996         1.25237776E-09
  0.104400001         1.51567270E-09
  0.104699999         1.81607729E-09
  0.104999997         2.15739093E-09
  0.105300002         2.54376431E-09
  0.105599999         2.97974356E-09
  0.105899997         3.47032225E-09
  0.106200002         4.02099865E-09
  0.106500000         4.63783900E-09
  0.106799997         5.32755173E-09
  0.107100002         6.09756201E-09
  0.107400000         6.95610236E-09
  0.107699998         7.91230281E-09
  0.108000003         8.97629704E-09
  0.108300000         1.01593285E-08
  0.108599998         1.14738699E-08
  0.108900003         1.29337501E-08
  0.109200001         1.45542893E-08
  0.109499998         1.63524394E-08
  0.109800003         1.83469417E-08
  0.110100001         2.05584794E-08
  0.110399999         2.30098536E-08
  0.110699996         2.57261572E-08
  0.111000001         2.87349629E-08
  0.111299999         3.20665166E-08
  0.111599997         3.57539420E-08
  0.111900002         3.98334556E-08
  0.112199999         4.43445742E-08
  0.112499997         4.93303673E-08
  0.112800002         5.48376669E-08
  0.113100000         6.09173298E-08
  0.113399997         6.76244696E-08
  0.113700002         7.50187468E-08
  0.114000000         8.31646005E-08
  0.114299998         9.21315220E-08
  0.114600003         1.01994360E-07
  0.114900000         1.12833561E-07
  0.115199998         1.24735493E-07
  0.115500003         1.37792654E-07
  0.115800001         1.52104093E-07
  0.116099998         1.67775539E-07
  0.116400003         1.84919813E-07
  0.116700001         2.03657024E-07
  0.116999999         2.24114856E-07
  0.117299996         2.46428897E-07
  0.117600001         2.70742817E-07
  0.117899999         2.97208572E-07
  0.118199997         3.25986719E-07
  0.118500002         3.57246506E-07
  0.118799999         3.91166168E-07
  0.119099997         4.27932832E-07
  0.119400002         4.67742780E-07
  0.119700000         5.10801442E-07
  0.119999997         5.57323347E-07
  0.120300002         6.07532058E-07
  0.120600000         6.61660010E-07
  0.120899998         7.19948218E-07
  0.121200003         7.82646168E-07
  0.121500000         8.50011133E-07
  0.121799998         9.22307947E-07
  0.122100003         9.99808094E-07
  0.122400001         1.08278903E-06
  0.122699998         1.17153354E-06
  0.123000003         1.26632824E-06
  0.123300001         1.36746280E-06
  0.123599999         1.47522849E-06
  0.123899996         1.58991634E-06
  0.124200001         1.71181580E-06
  0.124499999         1.84121245E-06
  0.124799997         1.97838631E-06
  0.125100002         2.12360897E-06
  0.125400007         2.27714168E-06
  0.125699997         2.43923137E-06
  0.126000002         2.61010905E-06
  0.126300007         2.78998550E-06
  0.126599997         2.97904785E-06
  0.126900002         3.17745594E-06
  0.127200007         3.38533823E-06
  0.127499998         3.60278705E-06
  0.127800003         3.82985490E-06
  0.128099993         4.06654863E-06
  0.128399998         4.31282433E-06
  0.128700003         4.56858288E-06
  0.128999993         4.83366284E-06
  0.129299998         5.10783548E-06
  0.129600003         5.39079974E-06
  0.129899994         5.68217320E-06
  0.130199999         5.98148790E-06
  0.130500004         6.28818316E-06
  0.130799994         6.60159776E-06
  0.131099999         6.92096455E-06
  0.131400004         7.24540178E-06
  0.131699994         7.57390762E-06
  0.131999999         7.90535159E-06
  0.132300004         8.23846949E-06
  0.132599995         8.57185296E-06
  0.132900000         8.90394767E-06
  0.133200005         9.23304106E-06
  0.133499995         9.55726046E-06
  0.133800000         9.87456224E-06
  0.134100005         1.01827309E-05
  0.134399995         1.04793698E-05
  0.134700000         1.07618971E-05
  0.135000005         1.10275432E-05
  0.135299996         1.12733424E-05
  0.135600001         1.14961331E-05
  0.135900006         1.16925548E-05
  0.136199996         1.18590469E-05
  0.136500001         1.19918432E-05
  0.136800006         1.20869790E-05
  0.137099996         1.21402863E-05
  0.137400001         1.21474004E-05
  0.137700006         1.21037592E-05
  0.137999997         1.20046125E-05
  0.138300002         1.18450225E-05
  0.138600007         1.16198780E-05
  0.138899997         1.13238948E-05
  0.139200002         1.09516332E-05
  0.139500007         1.04975079E-05
  0.139799997         9.95579830E-06
  0.140100002         9.32066814E-06
  0.140400007         8.58617750E-06
  0.140699998         7.74630553E-06
  0.141000003         6.79496770E-06
  0.141299993         5.72603903E-06
  0.141599998         4.53337498E-06
  0.141900003         3.21083962E-06
  0.142199993         1.75233060E-06
  0.142499998         1.51806645E-07
  0.142800003        -1.59668161E-06
  0.143099993        -3.49896095E-06
  0.143399999        -5.56070381E-06
  0.143700004        -7.78739286E-06
  0.143999994        -1.01842888E-05
  0.144299999        -1.27563926E-05
  0.144600004        -1.55084090E-05
  0.144899994        -1.84447090E-05
  0.145199999        -2.15692926E-05
  0.145500004        -2.48857505E-05
  0.145799994        -2.83972258E-05
  0.146100000        -3.21063708E-05
  0.146400005        -3.60153172E-05
  0.146699995        -4.01256257E-05
  0.147000000        -4.44382640E-05
  0.147300005        -4.89535523E-05
  0.147599995        -5.36711486E-05
  0.147900000        -5.85899907E-05
  0.148200005        -6.37082849E-05
  0.148499995        -6.90234592E-05
  0.148800001        -7.45321449E-05
  0.149100006        -8.02301438E-05
  0.149399996        -8.61124063E-05
  0.149700001        -9.21730025E-05
  0.150000006        -9.84051294E-05
  0.150299996        -1.04801053E-04
  0.150600001        -1.11352136E-04
  0.150900006        -1.18048818E-04
  0.151199996        -1.24880593E-04
  0.151500002        -1.31836030E-04
  0.151800007        -1.38902775E-04
  0.152099997        -1.46067541E-04
  0.152400002        -1.53316156E-04
  0.152700007        -1.60633528E-04
  0.152999997        -1.68003709E-04
  0.153300002        -1.75409936E-04
  0.153600007        -1.82834585E-04
  0.153899997        -1.90259278E-04
  0.154200003        -1.97664907E-04
  0.154499993        -2.05031683E-04
  0.154799998        -2.12339146E-04
  0.155100003        -2.19566253E-04
  0.155399993        -2.26691453E-04
  0.155699998        -2.33692714E-04
  0.156000003        -2.40547597E-04
  0.156299993        -2.47233344E-04
  0.156599998        -2.53726932E-04
  0.156900004        -2.60005152E-04
  0.157199994        -2.66044692E-04
  0.157499999        -2.71822239E-04
  0.157800004        -2.77314539E-04
  0.158099994        -2.82498484E-04
  0.158399999        -2.87351228E-04
  0.158700004        -2.91850214E-04
  0.158999994        -2.95973325E-04
  0.159299999        -2.99698993E-04
  0.159600005        -3.03006236E-04
  0.159899995        -3.05874739E-04
  0.160200000        -3.08285002E-04
  0.160500005        -3.10218369E-04
  0.160799995        -3.11657204E-04
  0.161100000        -3.12584889E-04
  0.161400005        -3.12985911E-04
  0.161699995        -3.12845979E-04
  0.162000000        -3.12152115E-04
  0.162300006        -3.10892705E-04
  0.162599996        -3.09057534E-04
  0.162900001        -3.06637899E-04
  0.163200006        -3.03626643E-04
  0.163499996        -3.00018233E-04
  0.163800001        -2.95808772E-04
  0.164100006        -2.90996075E-04
  0.164399996        -2.85579736E-04
  0.164700001        -2.79561064E-04
  0.165000007        -2.72943231E-04
  0.165299997        -2.65731127E-04
  0.165600002        -2.57931591E-04
  0.165900007        -2.49553210E-04
  0.166199997        -2.40606460E-04
  0.166500002        -2.31103608E-04
  0.166800007        -2.21058741E-04
  0.167099997        -2.10487735E-04
  0.167400002        -1.99408256E-04
  0.167699993        -1.87839643E-04
  0.167999998        -1.75802983E-04
  0.168300003        -1.63320918E-04
  0.168599993        -1.50417720E-04
  0.168899998        -1.37119190E-04
  0.169200003        -1.23452512E-04
  0.169499993        -1.09446308E-04
  0.169799998        -9.51304464E-05
  0.170100003        -8.05360396E-05
  0.170399994        -6.56952907E-05
  0.170699999        -5.06414362E-05
  0.171000004        -3.54086296E-05
  0.171299994        -2.00318482E-05
  0.171599999        -4.54677456E-06
  0.171900004         1.10103092E-05
  0.172199994         2.66026345E-05
  0.172499999         4.21930708E-05
  0.172800004         5.77442297E-05
  0.173099995         7.32186018E-05
  0.173400000         8.85786794E-05
  0.173700005         1.03787061E-04
  0.173999995         1.18806594E-04
  0.174300000         1.33600493E-04
  0.174600005         1.48132443E-04
  0.174899995         1.62366792E-04
  0.175200000         1.76268542E-04
  0.175500005         1.89803628E-04
  0.175799996         2.02938914E-04
  0.176100001         2.15642329E-04
  0.176400006         2.27883036E-04
  0.176699996         2.39631481E-04
  0.177000001         2.50859506E-04
  0.177300006         2.61540496E-04
  0.177599996         2.71649362E-04
  0.177900001         2.81162735E-04
  0.178200006         2.90059077E-04
  0.178499997         2.98318570E-04
  0.178800002         3.05923371E-04
  0.179100007         3.12857621E-04
  0.179399997         3.19107494E-04
  0.179700002         3.24661174E-04
  0.180000007         3.29509057E-04
  0.180299997         3.33643577E-04
  0.180600002         3.37059377E-04
  0.180899993         3.39753344E-04
  0.181199998         3.41724430E-04
  0.181500003         3.42973857E-04
  0.181799993         3.43504973E-04
  0.182099998         3.43323278E-04
  0.182400003         3.42436397E-04
  0.182699993         3.40853992E-04