  -5.99999987E-02     0.00000000    
  -5.97000010E-02    -3.34670689E-24
  -5.93999997E-02    -3.58853174E-15
  -5.90999983E-02    -5.81755103E-14
  -5.88000007E-02    -3.34815725E-13
  -5.84999993E-02    -1.24260715E-12
  -5.82000017E-02    -3.56900837E-12
  -5.79000004E-02    -8.63557576E-12
  -5.75999990E-02    -1.84587987E-11
  -5.73000014E-02    -3.59076692E-11
  -5.70000000E-02    -6.48526857E-11
  -5.66999987E-02    -1.10304189E-10
  -5.64000010E-02    -1.78540127E-10
  -5.60999997E-02    -2.77223883E-10
  -5.57999983E-02    -4.15510931E-10
  -5.55000007E-02    -6.04139683E-10
  -5.51999994E-02    -8.55497173E-10
  -5.49000017E-02    -1.18364751E-09
  -5.46000004E-02    -1.60430980E-09
  -5.42999990E-02    -2.13477924E-09
  -5.40000014E-02    -2.79379364E-09
  -5.37000000E-02    -3.60136876E-09
  -5.33999987E-02    -4.57864502E-09
  -5.31000011E-02    -5.74781511E-09
  -5.27999997E-02    -7.13221437E-09
  -5.24999984E-02    -8.75667983E-09
  -5.22000007E-02    -1.06482529E-08
  -5.18999994E-02    -1.28373037E-08
  -5.16000018E-02    -1.53590847E-08
  -5.13000004E-02    -1.82556850E-08
  -5.09999990E-02    -2.15782467E-08
  -5.07000014E-02    -2.53892782E-08
  -5.04000001E-02    -2.97648253E-08
  -5.00999987E-02    -3.47962050E-08
  -4.98000011E-02    -4.05910754E-08
  -4.94999997E-02    -4.72736268E-08
  -4.91999984E-02    -5.49837900E-08
  -4.89000008E-02    -6.38755040E-08
  -4.85999994E-02    -7.41142543E-08
  -4.83000018E-02    -8.58741771E-08
  -4.80000004E-02    -9.93352742E-08
  -4.76999991E-02    -1.14681200E-07
  -4.74000014E-02    -1.32098265E-07
  -4.71000001E-02    -1.51776007E-07
  -4.67999987E-02    -1.73909726E-07
  -4.65000011E-02    -1.98705109E-07
  -4.61999997E-02    -2.26384628E-07
  -4.58999984E-02    -2.57195552E-07
  -4.56000008E-02    -2.91418786E-07
  -4.52999994E-02    -3.29377741E-07
  -4.50000018E-02    -3.71446873E-07
  -4.47000004E-02    -4.18058562E-07
  -4.43999991E-02    -4.69708397E-07
  -4.41000015E-02    -5.26958502E-07
  -4.38000001E-02    -5.90438674E-07
  -4.34999987E-02    -6.60846524E-07
  -4.32000011E-02    -7.38946312E-07
  -4.28999998E-02    -8.25568065E-07
  -4.25999984E-02    -9.21608205E-07
  -4.23000008E-02    -1.02803119E-06
  -4.19999994E-02    -1.14587442E-06
  -4.17000018E-02    -1.27625549E-06
  -4.14000005E-02    -1.42038186E-06
  -4.10999991E-02    -1.57956379E-06
  -4.08000015E-02    -1.75522700E-06
  -4.05000001E-02    -1.94892755E-06
  -4.01999988E-02    -2.16236435E-06
  -3.99000011E-02    -2.39739188E-06
  -3.95999998E-02    -2.65602830E-06
  -3.92999984E-02    -2.94046367E-06
  -3.90000008E-02    -3.25306428E-06
  -3.86999995E-02    -3.59637511E-06
  -3.84000018E-02    -3.97312215E-06
  -3.81000005E-02    -4.38621464E-06
  -3.77999991E-02    -4.83875101E-06
  -3.75000015E-02    -5.33402499E-06
  -3.72000001E-02    -5.87553723E-06
  -3.68999988E-02    -6.46701210E-06
  -3.66000012E-02    -7.11241819E-06
  -3.62999998E-02    -7.81599101E-06
  -3.59999985E-02    -8.58226122E-06
  -3.57000008E-02    -9.41608232E-06
  -3.53999995E-02    -1.03226575E-05
  -3.51000018E-02    -1.13075621E-05
  -3.48000005E-02    -1.23767695E-05
  -3.44999991E-02    -1.35366618E-05
  -3.42000015E-02    -1.47940418E-05
  -3.39000002E-02    -1.61561402E-05
  -3.35999988E-02    -1.76306130E-05
  -3.33000012E-02    -1.92255375E-05
  -3.29999998E-02    -2.09494137E-05
  -3.26999985E-02    -2.28111530E-05
  -3.24000008E-02    -2.48200795E-05
  -3.20999995E-02    -2.69859265E-05
  -3.18000019E-02    -2.93188459E-05
  -3.15000005E-02    -3.18294115E-05
  -3.11999992E-02    -3.45286280E-05
  -3.08999997E-02    -3.74279552E-05
  -3.06000002E-02    -4.05393112E-05
  -3.03000007E-02    -4.38750758E-05
  -2.99999993E-02    -4.74481276E-05
  -2.96999998E-02    -5.12718107E-05
  -2.94000003E-02    -5.53599493E-05
  -2.91000009E-02    -5.97268336E-05
  -2.87999995E-02    -6.43871826E-05
  -2.85000000E-02    -6.93561233E-05
  -2.82000005E-02    -7.46491496E-05
  -2.78999992E-02    -8.02820796E-05
  -2.75999997E-02    -8.62710149E-05
  -2.73000002E-02    -9.26322609E-05
  -2.70000007E-02    -9.93823269E-05
  -2.66999993E-02    -1.06537816E-04
  -2.63999999E-02    -1.14115421E-04
  -2.61000004E-02    -1.22131838E-04
  -2.58000009E-02    -1.30603745E-04
  -2.54999995E-02    -1.39547701E-04
  -2.52000000E-02    -1.48980107E-04
  -2.49000005E-02    -1.58917115E-04
  -2.45999992E-02    -1.69374543E-04
  -2.42999997E-02    -1.80367802E-04
  -2.40000002E-02    -1.91911749E-04
  -2.37000007E-02    -2.04020602E-04
  -2.33999994E-02    -2.16707762E-04
  -2.30999999E-02    -2.29985701E-04
  -2.28000004E-02    -2.43865841E-04
  -2.25000009E-02    -2.58358370E-04
  -2.21999995E-02    -2.73472077E-04
  -2.19000001E-02    -2.89214251E-04
  -2.16000006E-02    -3.05590511E-04
  -2.12999992E-02    -3.22604552E-04
  -2.09999997E-02    -3.40258208E-04
  -2.07000002E-02    -3.58551100E-04
  -2.04000007E-02    -3.77480581E-04
  -2.00999994E-02    -3.97041527E-04
  -1.97999999E-02    -4.17226169E-04
  -1.95000004E-02    -4.38024028E-04
  -1.92000009E-02    -4.59421513E-04
  -1.88999996E-02    -4.81401978E-04
  -1.86000001E-02    -5.03945339E-04
  -1.83000006E-02    -5.27028053E-04
  -1.79999992E-02    -5.50622819E-04
  -1.76999997E-02    -5.74698322E-04
  -1.74000002E-02    -5.99219289E-04
  -1.71000008E-02    -6.24146196E-04
  -1.67999994E-02    -6.49435155E-04
  -1.64999999E-02    -6.75037736E-04
  -1.62000004E-02    -7.00901030E-04
  -1.59000009E-02    -7.26967293E-04
  -1.55999996E-02    -7.53174245E-04
  -1.53000001E-02    -7.79454713E-04
  -1.49999997E-02    -8.05736810E-04
  -1.47000002E-02    -8.31943704E-04
  -1.43999998E-02    -8.57993902E-04
  -1.41000003E-02    -8.83800909E-04
  -1.37999998E-02    -9.09273571E-04
  -1.35000004E-02    -9.34315962E-04
  -1.31999999E-02    -9.58827382E-04
  -1.29000004E-02    -9.82702710E-04
  -1.26000000E-02    -1.00583211E-03
  -1.22999996E-02    -1.02810166E-03
  -1.20000001E-02    -1.04939332E-03
  -1.16999997E-02    -1.06958498E-03
  -1.14000002E-02    -1.08855101E-03
  -1.10999998E-02    -1.10616267E-03
  -1.08000003E-02    -1.12228806E-03
  -1.04999999E-02    -1.13679282E-03
  -1.02000004E-02    -1.14954088E-03
  -9.89999995E-03    -1.16039393E-03
  -9.60000046E-03    -1.16921309E-03
  -9.30000003E-03    -1.17585855E-03
  -8.99999961E-03    -1.18019059E-03
  -8.70000012E-03    -1.18206989E-03
  -8.39999970E-03    -1.18135812E-03
  -8.10000021E-03    -1.17791886E-03
  -7.79999979E-03    -1.17161765E-03
  -7.49999983E-03    -1.16232317E-03
  -7.19999988E-03    -1.14990748E-03
  -6.89999992E-03    -1.13424694E-03
  -6.59999996E-03    -1.11522304E-03
  -6.30000001E-03    -1.09272287E-03
  -6.00000005E-03    -1.06664014E-03
  -5.70000010E-03    -1.03687576E-03
  -5.40000014E-03    -1.00333861E-03
  -5.10000018E-03    -9.65946470E-04
  -4.80000023E-03    -9.24626889E-04
  -4.49999981E-03    -8.79317638E-04
  -4.19999985E-03    -8.29967554E-04
  -3.89999989E-03    -7.76537228E-04
  -3.59999994E-03    -7.18999887E-04
  -3.29999998E-03    -6.57341501E-04
  -3.00000003E-03    -5.91561897E-04
  -2.70000007E-03    -5.21674869E-04
  -2.40000011E-03    -4.47708997E-04
  -2.09999993E-03    -3.69707821E-04
  -1.79999997E-03    -2.87730421E-04
  -1.50000001E-03    -2.01851799E-04
  -1.20000006E-03    -1.12163121E-04
  -8.99999985E-04    -1.87720252E-05
  -6.00000028E-04     7.81971248E-05
  -3.00000014E-04     1.78603135E-04
   0.00000000         2.82287830E-04
   3.00000014E-04     3.89076187E-04
   6.00000028E-04     4.98776266E-04
   8.99999985E-04     6.11179566E-04
   1.20000006E-03     7.26061058E-04
   1.50000001E-03     8.43179994E-04
   1.79999997E-03     9.62279970E-04
   2.09999993E-03     1.08308974E-03
   2.40000011E-03     1.20532385E-03
   2.70000007E-03     1.32868323E-03
   3.00000003E-03     1.45285646E-03
   3.29999998E-03     1.57752004E-03
   3.59999994E-03     1.70233985E-03
   3.89999989E-03     1.82697189E-03
   4.19999985E-03     1.95106352E-03
   4.49999981E-03     2.07425444E-03
   4.80000023E-03     2.19617807E-03
   5.10000018E-03     2.31646257E-03
   5.40000014E-03     2.43473263E-03
   5.70000010E-03     2.55060964E-03
   6.00000005E-03     2.66371551E-03
   6.30000001E-03     2.77367095E-03
   6.59999996E-03     2.88010039E-03
   6.89999992E-03     2.98263039E-03
   7.19999988E-03     3.08089401E-03
   7.49999983E-03     3.17453058E-03
   7.79999979E-03     3.26318759E-03
   8.10000021E-03     3.34652327E-03
   8.39999970E-03     3.42420698E-03
   8.70000012E-03     3.49592138E-03
   8.99999961E-03     3.56136356E-03
   9.30000003E-03     3.62024666E-03
   9.60000046E-03     3.67230084E-03
   9.89999995E-03     3.71727510E-03
   1.02000004E-02     3.75493849E-03
   1.04999999E-02     3.78508074E-03
   1.08000003E-02     3.80751397E-03
   1.10999998E-02     3.82207311E-03
   1.14000002E-02     3.82861728E-03
   1.16999997E-02     3.82703077E-03
   1.20000001E-02     3.81722394E-03
   1.22999996E-02     3.79913277E-03
   1.26000000E-02     3.77272116E-03
   1.29000004E-02     3.73797980E-03
   1.31999999E-02     3.69492755E-03
   1.35000004E-02     3.64361145E-03
   1.37999998E-02     3.58410575E-03
   1.41000003E-02     3.51651339E-03
   1.43999998E-02     3.44096427E-03
   1.47000002E-02     3.35761579E-03
   1.49999997E-02     3.26665211E-03
   1.53000001E-02     3.16828326E-03
   1.55999996E-02     3.06274486E-03
   1.59000009E-02     2.95029697E-03
   1.62000004E-02     2.83122342E-03
   1.64999999E-02     2.70583015E-03
   1.67999994E-02     2.57444498E-03
   1.71000008E-02     2.43741600E-03
   1.74000002E-02     2.29511037E-03
   1.76999997E-02     2.14791275E-03
   1.79999992E-02     1.99622381E-03
   1.83000006E-02     1.84045953E-03
   1.86000001E-02     1.68104819E-03
   1.88999996E-02     1.51842984E-03
   1.92000009E-02     1.35305407E-03
   1.95000004E-02     1.18537818E-03
   1.97999999E-02     1.01586548E-03
   2.00999994E-02     8.44983500E-04
   2.04000007E-02     6.73201925E-04
   2.07000002E-02     5.00990951E-04
   2.09999997E-02     3.28819326E-04
   2.12999992E-02     1.57152666E-04
   2.16000006E-02    -1.35483624E-05
   2.19000001E-02    -1.82829681E-04
   2.21999995E-02    -3.50245507E-04
   2.25000009E-02    -5.15359861E-04
   2.28000004E-02    -6.77748234E-04
   2.30999999E-02    -8.36998981E-04
   2.33999994E-02    -9.92714660E-04
   2.37000007E-02    -1.14451372E-03
   2.40000002E-02    -1.29203137E-03
   2.42999997E-02    -1.43492105E-03
   2.45999992E-02    -1.57285552E-03
   2.49000005E-02    -1.70552777E-03
   2.52000000E-02    -1.83265249E-03
   2.54999995E-02    -1.95396598E-03
   2.58000009E-02    -2.06922763E-03
   2.61000004E-02    -2.17822054E-03
   2.63999999E-02    -2.28075124E-03
   2.66999993E-02    -2.37665069E-03
   2.70000007E-02    -2.46577500E-03
   2.73000002E-02    -2.54800427E-03
   2.75999997E-02    -2.62324349E-03
   2.78999992E-02    -2.69142236E-03
   2.82000005E-02    -2.75249500E-03
   2.85000000E-02    -2.80643953E-03
   2.87999995E-02    -2.85325851E-03
   2.91000009E-02    -2.89297709E-03
   2.94000003E-02    -2.92564416E-03
   2.96999998E-02    -2.95133051E-03
   2.99999993E-02    -2.97012855E-03
   3.03000007E-02    -2.98215193E-03
   3.06000002E-02    -2.98753451E-03
   3.08999997E-02    -2.98642926E-03
   3.11999992E-02    -2.97900732E-03
   3.15000005E-02    -2.96545750E-03
   3.18000019E-02    -2.94598518E-03
   3.20999995E-02    -2.92081013E-03
   3.24000008E-02    -2.89016706E-03
   3.26999985E-02    -2.85430276E-03
   3.29999998E-02    -2.81347637E-03
   3.33000012E-02    -2.76795682E-03
   3.35999988E-02    -2.71802256E-03
   3.39000002E-02    -2.66396045E-03
   3.42000015E-02    -2.60606362E-03
   3.44999991E-02    -2.54463055E-03
   3.48000005E-02    -2.47996510E-03
   3.51000018E-02    -2.41237320E-03
   3.53999995E-02    -2.34216382E-03
   3.57000008E-02    -2.26964615E-03
   3.59999985E-02    -2.19513010E-03
   3.62999998E-02    -2.11892347E-03
   3.66000012E-02    -2.04133196E-03
   3.68999988E-02    -1.96265848E-03
   3.72000001E-02    -1.88320118E-03
   3.75000015E-02    -1.80325273E-03
   3.77999991E-02    -1.72309985E-03
   3.81000005E-02    -1.64302217E-03
   3.84000018E-02    -1.56329130E-03
   3.86999995E-02    -1.48416986E-03
   3.90000008E-02    -1.40591117E-03
   3.92999984E-02    -1.32875866E-03
   3.95999998E-02    -1.25294470E-03
   3.99000011E-02    -1.17869047E-03
   4.01999988E-02    -1.10620516E-03
   4.05000001E-02    -1.03568623E-03
   4.08000015E-02    -9.67318134E-04
   4.10999991E-02    -9.01272579E-04
   4.14000005E-02    -8.37708067E-04
   4.17000018E-02    -7.76769710E-04
   4.19999994E-02    -7.18589057E-04
   4.23000008E-02    -6.63283921E-04
   4.25999984E-02    -6.10958086E-04
   4.28999998E-02    -5.61701716E-04
   4.32000011E-02    -5.15590771E-04
   4.34999987E-02    -4.72687476E-04
   4.38000001E-02    -4.33040143E-04
   4.41000015E-02    -3.96683376E-04
   4.43999991E-02    -3.63638304E-04
   4.47000004E-02    -3.33912583E-04
   4.50000018E-02    -3.07500944E-04
   4.52999994E-02    -2.84385256E-04
   4.56000008E-02    -2.64535047E-04
   4.58999984E-02    -2.47907738E-04
   4.61999997E-02    -2.34449239E-04
   4.65000011E-02    -2.24094169E-04
   4.67999987E-02    -2.16766522E-04
   4.71000001E-02    -2.12379964E-04
   4.74000014E-02    -2.10838451E-04
   4.76999991E-02    -2.12036626E-04
   4.80000004E-02    -2.15860375E-04
   4.83000018E-02    -2.22187329E-04
   4.85999994E-02    -2.30887381E-04
   4.89000008E-02    -2.41823232E-04
   4.91999984E-02    -2.54850951E-04
   4.94999997E-02    -2.69820564E-04
   4.98000011E-02    -2.86576658E-04
   5.00999987E-02    -3.04958900E-04
   5.04000001E-02    -3.24802822E-04
   5.07000014E-02    -3.45940352E-04
   5.09999990E-02    -3.68200446E-04
   5.13000004E-02    -3.91409849E-04
   5.16000018E-02    -4.15393646E-04
   5.18999994E-02    -4.39975847E-04
   5.22000007E-02    -4.64980199E-04
   5.24999984E-02    -4.90230508E-04
   5.27999997E-02    -5.15551597E-04
   5.31000011E-02    -5.40769368E-04
   5.33999987E-02    -5.65711933E-04
   5.37000000E-02    -5.90209558E-04
   5.40000014E-02    -6.14095712E-04
   5.42999990E-02    -6.37207180E-04
   5.46000004E-02    -6.59384823E-04
   5.49000017E-02    -6.80473924E-04
   5.51999994E-02    -7.00324832E-04
   5.55000007E-02    -7.18793250E-04
   5.57999983E-02    -7.35740934E-04
   5.60999997E-02    -7.51035986E-04
   5.64000010E-02    -7.64553493E-04
   5.66999987E-02    -7.76175642E-04
   5.70000000E-02    -7.85792363E-04
   5.73000014E-02    -7.93301733E-04
   5.75999990E-02    -7.98609981E-04
   5.79000004E-02    -8.01632064E-04
   5.82000017E-02    -8.02291790E-04
   5.84999993E-02    -8.00521928E-04
   5.88000007E-02    -7.96264678E-04
   5.90999983E-02    -7.89471494E-04
   5.93999997E-02    -7.80103263E-04
   5.97000010E-02    -7.68130645E-04
   5.99999987E-02    -7.53533794E-04
   6.03000000E-02    -7.36302638E-04
   6.06000014E-02    -7.16436887E-04
   6.08999990E-02    -6.93945913E-04
   6.12000003E-02    -6.68848865E-04
   6.15000017E-02    -6.41174673E-04
   6.17999993E-02    -6.10961579E-04
   6.21000007E-02    -5.78257605E-04
   6.23999983E-02    -5.43119851E-04
   6.27000034E-02    -5.05614502E-04
   6.30000010E-02    -4.65816731E-04
   6.32999986E-02    -4.23810037E-04
   6.36000037E-02    -3.79686186E-04
   6.39000013E-02    -3.33544653E-04
   6.41999990E-02    -2.85492395E-04
   6.44999966E-02    -2.35643267E-04
   6.48000017E-02    -1.84117613E-04
   6.50999993E-02    -1.31041845E-04
   6.53999969E-02    -7.65479272E-05
   6.57000020E-02    -2.07728608E-05
   6.59999996E-02     3.61417369E-05
   6.62999973E-02     9.40501923E-05
   6.66000023E-02     1.52803274E-04
   6.69000000E-02     2.12248749E-04
   6.71999976E-02     2.72231875E-04
   6.75000027E-02     3.32596072E-04
   6.78000003E-02     3.93183378E-04
   6.80999979E-02     4.53835150E-04
   6.84000030E-02     5.14392625E-04
   6.87000006E-02     5.74697682E-04
   6.89999983E-02     6.34593132E-04
   6.93000033E-02     6.93923794E-04
   6.96000010E-02     7.52536696E-04
   6.98999986E-02     8.10281839E-04
   7.02000037E-02     8.67012772E-04
   7.05000013E-02     9.22587002E-04
   7.07999989E-02     9.76866577E-04
   7.10999966E-02     1.02971843E-03
   7.14000016E-02     1.08101487E-03
   7.16999993E-02     1.13063387E-03
   7.19999969E-02     1.17845961E-03
   7.23000020E-02     1.22438266E-03
   7.25999996E-02     1.26830023E-03
   7.28999972E-02     1.31011661E-03
   7.32000023E-02     1.34974322E-03
   7.34999999E-02     1.38709927E-03
   7.37999976E-02     1.42211153E-03
   7.41000026E-02     1.45471445E-03
   7.44000003E-02     1.48485100E-03
   7.46999979E-02     1.51247194E-03
   7.50000030E-02     1.53753639E-03
   7.53000006E-02     1.56001153E-03
   7.55999982E-02     1.57987280E-03
   7.59000033E-02     1.59710366E-03
   7.62000009E-02     1.61169528E-03
   7.64999986E-02     1.62364671E-03
   7.68000036E-02     1.63296435E-03
   7.71000013E-02     1.63966184E-03
   7.73999989E-02     1.64375966E-03
   7.76999965E-02     1.64528505E-03
   7.80000016E-02     1.64427143E-03
   7.82999992E-02     1.64075859E-03
   7.85999969E-02     1.63479161E-03
   7.89000019E-02     1.62642123E-03
   7.91999996E-02     1.61570334E-03
   7.94999972E-02     1.60269835E-03
   7.98000023E-02     1.58747146E-03
   8.00999999E-02     1.57009170E-03
   8.03999975E-02     1.55063148E-03
   8.07000026E-02     1.52916706E-03
   8.10000002E-02     1.50577724E-03
   8.12999979E-02     1.48054305E-03
   8.16000029E-02     1.45354820E-03
   8.19000006E-02     1.42487732E-03
   8.21999982E-02     1.39461667E-03
   8.25000033E-02     1.36285345E-03
   8.28000009E-02     1.32967508E-03
   8.30999985E-02     1.29516958E-03
   8.34000036E-02     1.25942461E-03
   8.37000012E-02     1.22252770E-03
   8.39999989E-02     1.18456595E-03
   8.42999965E-02     1.14562560E-03
   8.46000016E-02     1.10579224E-03
   8.48999992E-02     1.06515049E-03
   8.51999968E-02     1.02378358E-03
   8.55000019E-02     9.81773832E-04
   8.57999995E-02     9.39201971E-04
   8.60999972E-02     8.96147452E-04
   8.64000022E-02     8.52688041E-04
   8.66999999E-02     8.08899873E-04
   8.69999975E-02     7.64857454E-04
   8.73000026E-02     7.20633368E-04
   8.76000002E-02     6.76298630E-04
   8.78999978E-02     6.31922274E-04
   8.82000029E-02     5.87571762E-04
   8.85000005E-02     5.43312752E-04
   8.87999982E-02     4.99209389E-04
   8.91000032E-02     4.55324189E-04
   8.94000009E-02     4.11718356E-04
   8.96999985E-02     3.68451787E-04
   9.00000036E-02     3.25583096E-04
   9.03000012E-02     2.83169909E-04
   9.05999988E-02     2.41268703E-04
   9.08999965E-02     1.99935050E-04
   9.12000015E-02     1.59223579E-04
   9.14999992E-02     1.19188029E-04
   9.17999968E-02     7.98812107E-05
   9.21000019E-02     4.13550770E-05
   9.23999995E-02     3.66066206E-06
   9.26999971E-02    -3.31519041E-05
   9.30000022E-02    -6.90334127E-05
   9.32999998E-02    -1.03935585E-04
   9.35999975E-02    -1.37811105E-04
   9.39000025E-02    -1.70613595E-04
   9.42000002E-02    -2.02297655E-04
   9.44999978E-02    -2.32818944E-04
   9.48000029E-02    -2.62134155E-04
   9.51000005E-02    -2.90201075E-04
   9.53999981E-02    -3.16978781E-04
   9.57000032E-02    -3.42427636E-04
   9.60000008E-02    -3.66509455E-04
   9.62999985E-02    -3.89187713E-04
   9.66000035E-02    -4.10427718E-04
   9.69000012E-02    -4.30196669E-04
   9.71999988E-02    -4.48464067E-04
   9.74999964E-02    -4.65201709E-04
   9.78000015E-02    -4.80384013E-04
   9.80999991E-02    -4.93988162E-04
   9.83999968E-02    -5.05994249E-04
   9.87000018E-02    -5.16385480E-04
   9.89999995E-02    -5.25148353E-04
   9.92999971E-02    -5.32272621E-04
   9.96000022E-02    -5.37751592E-04
   9.98999998E-02    -5.41582296E-04
  0.100199997        -5.43765433E-04
  0.100500003        -5.44305483E-04
  0.100800000        -5.43210888E-04
  0.101099998        -5.40494279E-04
  0.101400003        -5.36172360E-04
  0.101700000        -5.30265970E-04
  0.101999998        -5.22800372E-04
  0.102300003        -5.13805135E-04
  0.102600001        -5.03314252E-04
  0.102899998        -4.91365907E-04
  0.103200004        -4.78002854E-04
  0.103500001        -4.63271979E-04
  0.103799999        -4.47224360E-04
  0.104099996        -4.29915119E-04
  0.104400001        -4.11403365E-04
  0.104699999        -3.91751819E-04
  0.104999997        -3.71026894E-04
  0.105300002        -3.49298207E-04
  0.105599999        -3.26638692E-04
  0.105899997        -3.03124049E-04
  0.106200002        -2.78832798E-04
  0.106500000        -2.53845821E-04
  0.106799997        -2.28246296E-04
  0.107100002        -2.02119321E-04
  0.107400000        -1.75551701E-04
  0.107699998        -1.48631647E-04
  0.108000003        -1.21448495E-04
  0.108300000        -9.40923928E-05
  0.108599998        -6.66539490E-05
  0.108900003        -3.92239381E-05
  0.109200001        -1.18929511E-05
  0.109499998         1.52489711E-05
  0.109800003         4.21126642E-05
  0.110100001         6.86101921E-05
  0.110399999         9.46551590E-05
  0.110699996         1.20163080E-04
  0.111000001         1.45051628E-04
  0.111299999         1.69240957E-04
  0.111599997         1.92653984E-04
  0.111900002         2.15216642E-04
  0.112199999         2.36858090E-04
  0.112499997         2.57510983E-04
  0.112800002         2.77111656E-04
  0.113100000         2.95600330E-04
  0.113399997         3.12921271E-04
  0.113700002         3.29022994E-04
  0.114000000         3.43858439E-04
  0.114299998         3.57384997E-04
  0.114600003         3.69564834E-04
  0.114900000         3.80364858E-04
  0.115199998         3.89756868E-04
  0.115500003         3.97717609E-04
  0.115800001         4.04228893E-04
  0.116099998         4.09277593E-04
  0.116400003         4.12855559E-04
  0.116700001         4.14959824E-04
  0.116999999         4.15592338E-04
  0.117299996         4.14760027E-04
  0.117600001         4.12474707E-04
  0.117899999         4.08752938E-04
  0.118199997         4.03616024E-04
  0.118500002         3.97089665E-04
  0.118799999         3.89204099E-04
  0.119099997         3.79993638E-04
  0.119400002         3.69496847E-04
  0.119700000         3.57756071E-04
  0.119999997         3.44817468E-04
  0.120300002         3.30730691E-04
  0.120600000         3.15548852E-04
  0.120899998         2.99328065E-04
  0.121200003         2.82127497E-04
  0.121500000         2.64008966E-04
  0.121799998         2.45036732E-04
  0.122100003         2.25277356E-04
  0.122400001         2.04799246E-04
  0.122699998         1.83672557E-04
  0.123000003         1.61968856E-04
  0.123300001         1.39760858E-04
  0.123599999         1.17122108E-04
  0.123899996         9.41268154E-05
  0.124200001         7.08494845E-05
  0.124499999         4.73647015E-05
  0.124799997         2.37468703E-05
  0.125100002         6.99377196E-08
  0.125400007        -2.35928328E-05
  0.125699997        -4.71691237E-05
  0.126000002        -7.05877901E-05
  0.126300007        -9.37791119E-05
  0.126599997        -1.16675008E-04
  0.126900002        -1.39209282E-04
  0.127200007        -1.61317817E-04
  0.127499998        -1.82938849E-04
  0.127800003        -2.04013078E-04
  0.128099993        -2.24483927E-04
  0.128399998        -2.44297757E-04
  0.128700003        -2.63403897E-04
  0.128999993        -2.81755056E-04
  0.129299998        -2.99307139E-04
  0.129600003        -3.16019723E-04
  0.129899994        -3.31855874E-04
  0.130199999        -3.46782414E-04
  0.130500004        -3.60770005E-04
  0.130799994        -3.73793097E-04
  0.131099999        -3.85830150E-04
  0.131400004        -3.96863528E-04
  0.131699994        -4.06879553E-04
  0.131999999        -4.15868533E-04
  0.132300004        -4.23824793E-04
  0.132599995        -4.30746557E-04
  0.132900000        -4.36636008E-04
  0.133200005        -4.41499200E-04
  0.133499995        -4.45345911E-04
  0.133800000        -4.48189792E-04
  0.134100005        -4.50048072E-04
  0.134399995        -4.50941501E-04
  0.134700000        -4.50894353E-04
  0.135000005        -4.49934130E-04
  0.135299996        -4.48091538E-04
  0.135600001        -4.45400336E-04
  0.135900006        -4.41897049E-04
  0.136199996        -4.37620882E-04
  0.136500001        -4.32613509E-04
  0.136800006        -4.26918850E-04
  0.137099996        -4.20582801E-04
  0.137400001        -4.13653150E-04
  0.137700006        -4.06179141E-04
  0.137999997        -3.98211501E-04
  0.138300002        -3.89801979E-04
  0.138600007        -3.81003279E-04
  0.138899997        -3.71868693E-04
  0.139200002        -3.62452003E-04
  0.139500007        -3.52807227E-04
  0.139799997        -3.42988351E-04
  0.140100002        -3.33049131E-04
  0.140400007        -3.23042914E-04
  0.140699998        -3.13022378E-04
  0.141000003        -3.03039327E-04
  0.141299993        -2.93144520E-04
  0.141599998        -2.83387373E-04
  0.141900003        -2.73815822E-04
  0.142199993        -2.64476170E-04
  0.142499998        -2.55412713E-04
  0.142800003        -2.46667827E-04
  0.143099993        -2.38281631E-04
  0.143399999        -2.30291873E-04
  0.143700004        -2.22733870E-04
  0.143999994        -2.15640321E-04
  0.144299999        -2.09041289E-04
  0.144600004        -2.02964060E-04
  0.144899994        -1.97433139E-04
  0.145199999        -1.92470179E-04
  0.145500004        -1.88093894E-04
  0.145799994        -1.84320132E-04
  0.146100000        -1.81161769E-04
  0.146400005        -1.78628747E-04
  0.146699995        -1.76728005E-04
  0.147000000        -1.75463589E-04
  0.147300005        -1.74836547E-04
  0.147599995        -1.74845060E-04
  0.147900000        -1.75484412E-04
  0.148200005        -1.76747082E-04
  0.148499995        -1.78622795E-04
  0.148800001        -1.81098614E-04
  0.149100006        -1.84159042E-04
  0.149399996        -1.87786165E-04
  0.149700001        -1.91959727E-04
  0.150000006        -1.96657260E-04
  0.150299996        -2.01854287E-04
  0.150600001        -2.07524427E-04
  0.150900006        -2.13639520E-04
  0.151199996        -2.20169808E-04
  0.151500002        -2.27084049E-04
  0.151800007        -2.34349689E-04
  0.152099997        -2.41932939E-04
  0.152400002        -2.49799021E-04
  0.152700007        -2.57912179E-04
  0.152999997        -2.66235846E-04
  0.153300002        -2.74732884E-04
  0.153600007        -2.83365545E-04
  0.153899997        -2.92095763E-04
  0.154200003        -3.00885207E-04
  0.154499993        -3.09695431E-04
  0.154799998        -3.18488106E-04
  0.155100003        -3.27224960E-04
  0.155399993        -3.35868186E-04
  0.155699998        -3.44380300E-04
  0.156000003        -3.52724455E-04
  0.156299993        -3.60864447E-04
  0.156599998        -3.68764857E-04
  0.156900004        -3.76391108E-04
  0.157199994        -3.83709586E-04
  0.157499999        -3.90687666E-04
  0.157800004        -3.97293858E-04
  0.158099994        -4.03497776E-04
  0.158399999        -4.09270142E-04
  0.158700004        -4.14583046E-04
  0.158999994        -4.19409742E-04
  0.159299999        -4.23724850E-04
  0.159600005        -4.27504361E-04
  0.159899995        -4.30725631E-04
  0.160200000        -4.33367473E-04
  0.160500005        -4.35410155E-04
  0.160799995        -4.36835340E-04
  0.161100000        -4.37626266E-04
  0.161400005        -4.37767652E-04
  0.161699995        -4.37245646E-04
  0.162000000        -4.36047936E-04
  0.162300006        -4.34163667E-04
  0.162599996        -4.31583467E-04
  0.162900001        -4.28299361E-04
  0.163200006        -4.24304890E-04
  0.163499996        -4.19594930E-04
  0.163800001        -4.14165843E-04
  0.164100006        -4.08015330E-04
  0.164399996        -4.01142461E-04
  0.164700001        -3.93547729E-04
  0.165000007        -3.85232910E-04
  0.165299997        -3.76201147E-04
  0.165600002        -3.66456836E-04
  0.165900007        -3.56005708E-04
  0.166199997        -3.44854721E-04
  0.166500002        -3.33012111E-04
  0.166800007        -3.20487277E-04
  0.167099997        -3.07290873E-04
  0.167400002        -2.93434656E-04
  0.167699993        -2.78931664E-04
  0.167999998        -2.63796042E-04
  0.168300003        -2.48043041E-04
  0.168599993        -2.31689119E-04
  0.168899998        -2.14751868E-04
  0.169200003        -1.97250047E-04
  0.169499993        -1.79203489E-04
  0.169799998        -1.60633193E-04
  0.170100003        -1.41561264E-04
  0.170399994        -1.22010904E-04
  0.170699999        -1.02006394E-04
  0.171000004        -8.15731182E-05
  0.171299994        -6.07374968E-05
  0.171599999        -3.95270363E-05
  0.171900004        -1.79702729E-05
  0.172199994         3.90319792E-06
  0.172499999         2.60627476E-05
  0.172800004         4.84767079E-05
  0.173099995         7.11123866E-05
  0.173400000         9.39360907E-05
  0.173700005         1.16913121E-04
  0.173999995         1.40007847E-04
  0.174300000         1.63183722E-04
  0.174600005         1.86403311E-04
  0.174899995         2.09628415E-04
  0.175200000         2.32820094E-04
  0.175500005         2.55938707E-04
  0.175799996         2.78944033E-04
  0.176100001         3.01795371E-04
  0.176400006         3.24451481E-04
  0.176699996         3.46870773E-04
  0.177000001         3.69011366E-04
  0.177300006         3.90831032E-04
  0.177599996         4.12287452E-04
  0.177900001         4.33338137E-04
  0.178200006         4.53940593E-04
  0.178499997         4.74052416E-04
  0.178800002         4.93631349E-04
  0.179100007         5.12635510E-04
  0.179399997         5.31023426E-04
  0.179700002         5.48754120E-04
  0.180000007         5.65787544E-04
  0.180299997         5.82084409E-04
  0.180600002         5.97606529E-04
  0.180899993         6.12316886E-04
  0.181199998         6.26179797E-04
  0.181500003         6.39161037E-04
  0.181799993         6.51227951E-04
  0.182099998         6.62349572E-04
  0.182400003         6.72496681E-04
  0.182699993         6.81642094E-04