  -5.99999987E-02     0.00000000    
  -5.97000010E-02     0.00000000    
  -5.93999997E-02     0.00000000    
  -5.90999983E-02     0.00000000    
  -5.88000007E-02     0.00000000    
  -5.84999993E-02     0.00000000    
  -5.82000017E-02     0.00000000    
  -5.79000004E-02     0.00000000    
  -5.75999990E-02     0.00000000    
  -5.73000014E-02     0.00000000    
  -5.70000000E-02     0.00000000    
  -5.66999987E-02     0.00000000    
  -5.64000010E-02     0.00000000    
  -5.60999997E-02     0.00000000    
  -5.57999983E-02     0.00000000    
  -5.55000007E-02    -0.00000000    
  -5.51999994E-02    -0.00000000    
  -5.49000017E-02    -0.00000000    
  -5.46000004E-02    -0.00000000    
  -5.42999990E-02    -0.00000000    
  -5.40000014E-02    -0.00000000    
  -5.37000000E-02    -1.40129846E-45
  -5.33999987E-02    -4.20389539E-45
  -5.31000011E-02    -1.82168800E-44
  -5.27999997E-02    -6.30584309E-44
  -5.24999984E-02    -1.98984382E-43
  -5.22000007E-02    -5.57716789E-43
  -5.18999994E-02    -1.37747639E-42
  -5.16000018E-02    -2.86425406E-42
  -5.13000004E-02    -4.36924861E-42
  -5.09999990E-02    -1.30040497E-42
  -5.07000014E-02     2.42270491E-41
  -5.04000001E-02     1.28106706E-40
  -5.00999987E-02     4.63253858E-40
  -4.98000011E-02     1.40831897E-39
  -4.94999997E-02     3.82585449E-39
  -4.91999984E-02     9.53755965E-39
  -4.89000008E-02     2.21200231E-38
  -4.85999994E-02     4.80884883E-38
  -4.83000018E-02     9.83707823E-38
  -4.80000004E-02     1.89546469E-37
  -4.76999991E-02     3.43448456E-37
  -4.74000014E-02     5.82176375E-37
  -4.71000001E-02     9.13198273E-37
  -4.67999987E-02     1.29612350E-36
  -4.65000011E-02     1.57961520E-36
  -4.61999997E-02     1.39554771E-36
  -4.58999984E-02     1.28937816E-39
  -4.56000008E-02    -3.92468463E-36
  -4.52999994E-02    -1.24964649E-35
  -4.50000018E-02    -2.87482698E-35
  -4.47000004E-02    -5.64911074E-35
  -4.43999991E-02    -9.95953316E-35
  -4.41000015E-02    -1.60267359E-34
  -4.38000001E-02    -2.35794845E-34
  -4.34999987E-02    -3.13256916E-34
  -4.32000011E-02    -3.61955397E-34
  -4.28999998E-02    -3.23971638E-34
  -4.25999984E-02    -1.04447827E-34
  -4.23000008E-02     4.34974970E-34
  -4.19999994E-02     1.47370753E-33
  -4.17000018E-02     3.21221243E-33
  -4.14000005E-02     5.82368260E-33
  -4.10999991E-02     9.36604952E-33
  -4.08000015E-02     1.36457159E-32
  -4.05000001E-02     1.80324139E-32
  -4.01999988E-02     2.12396460E-32
  -3.99000011E-02     2.11082110E-32
  -3.95999998E-02     1.44604113E-32
  -3.92999984E-02    -2.87405559E-33
  -3.90000008E-02    -3.57302205E-32
  -3.86999995E-02    -8.88339713E-32
  -3.84000018E-02    -1.65454286E-31
  -3.81000005E-02    -2.65414799E-31
  -3.77999991E-02    -3.82515548E-31
  -3.75000015E-02    -5.01593220E-31
  -3.72000001E-02    -5.95673816E-31
  -3.68999988E-02    -6.23914927E-31
  -3.66000012E-02    -5.31248262E-31
  -3.62999998E-02    -2.50751306E-31
  -3.59999985E-02     2.90264702E-31
  -3.57000008E-02     1.15970878E-30
  -3.53999995E-02     2.40542632E-30
  -3.51000018E-02     4.03551424E-30
  -3.48000005E-02     5.99523823E-30
  -3.44999991E-02     8.14209002E-30
  -3.42000015E-02     1.02208011E-29
  -3.39000002E-02     1.18400591E-29
  -3.35999988E-02     1.24524807E-29
  -3.33000012E-02     1.13394610E-29
  -3.29999998E-02     7.60379260E-30
  -3.26999985E-02     1.76450213E-31
  -3.24000008E-02    -1.21492325E-29
  -3.20999995E-02    -3.06320121E-29
  -3.18000019E-02    -5.64079783E-29
  -3.15000005E-02    -9.01747243E-29
  -3.11999992E-02    -1.31674217E-28
  -3.08999997E-02    -1.78920601E-28
  -3.06000002E-02    -2.27152267E-28
  -3.03000007E-02    -2.67559192E-28
  -2.99999993E-02    -2.85956734E-28
  -2.96999998E-02    -2.61745242E-28
  -2.94000003E-02    -1.67698749E-28
  -2.91000009E-02     2.86736874E-29
  -2.87999995E-02     3.61310356E-28
  -2.85000000E-02     8.58450821E-28
  -2.82000005E-02     1.53155217E-27
  -2.78999992E-02     2.36027414E-27
  -2.75999997E-02     3.27458126E-27
  -2.73000002E-02     4.13647266E-27
  -2.70000007E-02     4.72561540E-27
  -2.66999993E-02     4.73497735E-27
  -2.63999999E-02     3.78395622E-27
  -2.61000004E-02     1.45692267E-27
  -2.58000009E-02    -2.62618517E-27
  -2.54999995E-02    -8.70421727E-27
  -2.52000000E-02    -1.67375700E-26
  -2.49000005E-02    -2.62521046E-26
  -2.45999992E-02    -3.61884917E-26
  -2.42999997E-02    -4.47934420E-26
  -2.40000002E-02    -4.95996726E-26
  -2.37000007E-02    -4.75468192E-26
  -2.33999994E-02    -3.52918866E-26
  -2.30999999E-02    -9.74160788E-27
  -2.28000004E-02     3.11921518E-26
  -2.25000009E-02     8.76600295E-26
  -2.21999995E-02     1.56871598E-25
  -2.19000001E-02     2.32192234E-25
  -2.16000006E-02     3.02571914E-25
  -2.12999992E-02     3.52577363E-25
  -2.09999997E-02     3.63298254E-25
  -2.07000002E-02     3.14344800E-25
  -2.04000007E-02     1.87028444E-25
  -2.00999994E-02    -3.13762430E-26
  -1.97999999E-02    -3.42649672E-25
  -1.95000004E-02    -7.32577948E-25
  -1.92000009E-02    -1.16677241E-24
  -1.88999996E-02    -1.58850465E-24
  -1.86000001E-02    -1.91977683E-24
  -1.83000006E-02    -2.06670375E-24
  -1.79999992E-02    -1.92988766E-24
  -1.76999997E-02    -1.41977973E-24
  -1.74000002E-02    -4.76091066E-25
  -1.71000008E-02     9.10779062E-25
  -1.67999994E-02     2.67943154E-24
  -1.64999999E-02     4.68230757E-24
  -1.62000004E-02     6.68016881E-24
  -1.59000009E-02     8.35048869E-24
  -1.55999996E-02     9.31293292E-24
  -1.53000001E-02     9.17308129E-24
  -1.49999997E-02     7.58268012E-24
  -1.47000002E-02     4.31120018E-24
  -1.43999998E-02    -6.80067076E-25
  -1.41000003E-02    -7.17327393E-24
  -1.37999998E-02    -1.46523529E-23
  -1.35000004E-02    -2.22980796E-23
  -1.31999999E-02    -2.90309238E-23
  -1.29000004E-02    -3.36075224E-23
  -1.26000000E-02    -3.47688961E-23
  -1.22999996E-02    -3.14290231E-23
  -1.20000001E-02    -2.28826981E-23
  -1.16999997E-02    -9.00295397E-24
  -1.14000002E-02     9.60691534E-24
  -1.10999998E-02     3.15419375E-23
  -1.08000003E-02     5.46338052E-23
  -1.04999999E-02     7.61153397E-23
  -1.02000004E-02     9.29088126E-23
  -9.89999995E-03     1.02013233E-22
  -9.60000046E-03     1.00943373E-22
  -9.30000003E-03     8.81543353E-23
  -8.99999961E-03     6.33759618E-23
  -8.70000012E-03     2.77840976E-23
  -8.39999970E-03    -1.60460950E-23
  -8.10000021E-03    -6.44262701E-23
  -7.79999979E-03    -1.13057122E-22
  -7.49999983E-03    -1.57672860E-22
  -7.19999988E-03    -1.94708214E-22
  -6.89999992E-03    -2.21837052E-22
  -6.59999996E-03    -2.38227310E-22
  -6.30000001E-03    -2.44386205E-22
  -6.00000005E-03    -2.41536638E-22
  -5.70000010E-03    -2.30566801E-22
  -5.40000014E-03    -2.10716335E-22
  -5.10000018E-03    -1.78285733E-22
  -4.80000023E-03    -1.25752393E-22
  -4.49999981E-03    -4.17187480E-23
  -4.19999985E-03     8.79221956E-23
  -3.89999989E-03     2.77357991E-22
  -3.59999994E-03     5.36760448E-22
  -3.29999998E-03     8.67044821E-22
  -3.00000003E-03     1.25418059E-21
  -2.70000007E-03     1.66410624E-21
  -2.40000011E-03     2.03957112E-21
  -2.09999993E-03     2.30031961E-21
  -1.79999997E-03     2.34789138E-21
  -1.50000001E-03     2.07586912E-21
  -1.20000006E-03     1.38567767E-21
  -8.99999985E-04     2.07050126E-22
  -6.00000028E-04    -1.47885575E-21
  -3.00000014E-04    -3.61682178E-21
   0.00000000        -6.05945746E-21
   3.00000014E-04    -8.55813583E-21
   6.00000028E-04    -1.07673398E-20
   8.99999985E-04    -1.22658728E-20
   1.20000006E-03    -1.25966392E-20
   1.50000001E-03    -1.13241955E-20
   1.79999997E-03    -8.10624964E-21
   2.09999993E-03    -2.77209024E-21
   2.40000011E-03     4.60203509E-21
   2.70000007E-03     1.36326457E-20
   3.00000003E-03     2.35967293E-20
   3.29999998E-03     3.34393126E-20
   3.59999994E-03     4.18298224E-20
   3.89999989E-03     4.72712233E-20
   4.19999985E-03     4.82592776E-20
   4.49999981E-03     4.34815825E-20
   4.80000023E-03     3.20382173E-20
   5.10000018E-03     1.36589249E-20
   5.40000014E-03    -1.11130286E-20
   5.70000010E-03    -4.08018437E-20
   6.00000005E-03    -7.29741451E-20
   6.30000001E-03    -1.04330384E-19
   6.59999996E-03    -1.30924312E-19
   6.89999992E-03    -1.48507768E-19
   7.19999988E-03    -1.52981600E-19
   7.49999983E-03    -1.40917093E-19
   7.79999979E-03    -1.10097119E-19
   8.10000021E-03    -6.00155207E-20
   8.39999970E-03     7.73163053E-21
   8.70000012E-03     8.92271584E-20
   8.99999961E-03     1.78240038E-19
   9.30000003E-03     2.66494743E-19
   9.60000046E-03     3.44214177E-19
   9.89999995E-03     4.00918701E-19
   1.02000004E-02     4.26433707E-19
   1.04999999E-02     4.12028977E-19
   1.08000003E-02     3.51589397E-19
   1.10999998E-02     2.42700272E-19
   1.14000002E-02     8.75242326E-20
   1.16999997E-02    -1.06647634E-19
   1.20000001E-02    -3.27271321E-19
   1.22999996E-02    -5.56924421E-19
   1.26000000E-02    -7.74214842E-19
   1.29000004E-02    -9.55214523E-19
   1.31999999E-02    -1.07536168E-18
   1.35000004E-02    -1.11172485E-18
   1.37999998E-02    -1.04547926E-18
   1.41000003E-02    -8.64404102E-19
   1.43999998E-02    -5.65181286E-19
   1.47000002E-02    -1.55258841E-19
   1.49999997E-02     3.45960795E-19
   1.53000001E-02     9.06828696E-19
   1.55999996E-02     1.48424006E-18
   1.59000009E-02     2.02563256E-18
   1.62000004E-02     2.47223833E-18
   1.64999999E-02     2.76352771E-18
   1.67999994E-02     2.84266677E-18
   1.71000008E-02     2.66267206E-18
   1.74000002E-02     2.19281424E-18
   1.76999997E-02     1.42470270E-18
   1.79999992E-02     3.77381974E-19
   1.83000006E-02    -8.99267542E-19
   1.86000001E-02    -2.32352325E-18
   1.88999996E-02    -3.78380495E-18
   1.92000009E-02    -5.14406873E-18
   1.95000004E-02    -6.25275338E-18
   1.97999999E-02    -6.95506942E-18
   2.00999994E-02    -7.10802173E-18
   2.04000007E-02    -6.59712314E-18
   2.07000002E-02    -5.35336362E-18
   2.09999997E-02    -3.36866823E-18
   2.12999992E-02    -7.07904994E-19
   2.16000006E-02     2.48451204E-18
   2.19000001E-02     5.98514308E-18
   2.21999995E-02     9.50043321E-18
   2.25000009E-02     1.26845773E-17
   2.28000004E-02     1.51660174E-17
   2.30999999E-02     1.65812374E-17
   2.33999994E-02     1.66134660E-17
   2.37000007E-02     1.50329786E-17
   2.40000002E-02     1.17349169E-17
   2.42999997E-02     6.77017636E-18
   2.45999992E-02     3.64953534E-19
   2.49000005E-02    -7.07491135E-18
   2.52000000E-02    -1.49775972E-17
   2.54999995E-02    -2.26382277E-17
   2.58000009E-02    -2.92704212E-17
   2.61000004E-02    -3.40737333E-17
   2.63999999E-02    -3.63121469E-17
   2.66999993E-02    -3.53970072E-17
   2.70000007E-02    -3.09663036E-17
   2.73000002E-02    -2.29517441E-17
   2.75999997E-02    -1.16250780E-17
   2.78999992E-02     2.38362661E-18
   2.82000005E-02     1.81010527E-17
   2.85000000E-02     3.42615265E-17
   2.87999995E-02     4.93928304E-17
   2.91000009E-02     6.19324087E-17
   2.94000003E-02     7.03658790E-17
   2.96999998E-02     7.33767768E-17
   2.99999993E-02     6.99942169E-17
   3.03000007E-02     5.97241078E-17
   3.06000002E-02     4.26498360E-17
   3.08999997E-02     1.94900130E-17
   3.11999992E-02    -8.39622484E-18
   3.15000005E-02    -3.90616953E-17
   3.18000019E-02    -7.00819642E-17
   3.20999995E-02    -9.87197776E-17
   3.24000008E-02    -1.22133337E-16
   3.26999985E-02    -1.37614147E-16
   3.29999998E-02    -1.42836675E-16
   3.33000012E-02    -1.36099639E-16
   3.35999988E-02    -1.16538353E-16
   3.39000002E-02    -8.42883743E-17
   3.42000015E-02    -4.05828838E-17
   3.44999991E-02     1.22293690E-17
   3.48000005E-02     7.07542834E-17
   3.51000018E-02     1.30713344E-16
   3.53999995E-02     1.87191714E-16
   3.57000008E-02     2.34963393E-16
   3.59999985E-02     2.68877189E-16
   3.62999998E-02     2.84281357E-16
   3.66000012E-02     2.77459988E-16
   3.68999988E-02     2.46049889E-16
   3.72000001E-02     1.89405037E-16
   3.75000015E-02     1.08874068E-16
   3.77999991E-02     7.95820458E-18
   3.81000005E-02    -1.07679136E-16
   3.84000018E-02    -2.30373612E-16
   3.86999995E-02    -3.50804916E-16
   3.90000008E-02    -4.58526145E-16
   3.92999984E-02    -5.42663728E-16
   3.95999998E-02    -5.92757892E-16
   3.99000011E-02    -5.99695780E-16
   4.01999988E-02    -5.56674659E-16
   4.05000001E-02    -4.60117455E-16
   4.08000015E-02    -3.10454939E-16
   4.10999991E-02    -1.12684221E-16
   4.14000005E-02     1.23379798E-16
   4.17000018E-02     3.83232037E-16
   4.19999994E-02     6.48231509E-16
   4.23000008E-02     8.96599515E-16
   4.25999984E-02     1.10484045E-15
   4.28999998E-02     1.24952246E-15
   4.32000011E-02     1.30931050E-15
   4.34999987E-02     1.26710771E-15
   4.38000001E-02     1.11212853E-15
   4.41000015E-02     8.41706963E-16
   4.43999991E-02     4.62642937E-16
   4.47000004E-02    -8.09571674E-18
   4.50000018E-02    -5.43464862E-16
   4.52999994E-02    -1.10732342E-15
   4.56000008E-02    -1.65632751E-15
   4.58999984E-02    -2.14268842E-15
   4.61999997E-02    -2.51765699E-15
   4.65000011E-02    -2.73552213E-15
   4.67999987E-02    -2.75783446E-15
   4.71000001E-02    -2.55752408E-15
   4.74000014E-02    -2.12254090E-15
   4.76999991E-02    -1.45866517E-15
   4.80000004E-02    -5.91149905E-16
   4.83000018E-02     4.35059495E-16
   4.85999994E-02     1.55670574E-15
   4.89000008E-02     2.69525185E-15
   4.91999984E-02     3.76149078E-15
   4.94999997E-02     4.66152046E-15
   4.98000011E-02     5.30374423E-15
   5.00999987E-02     5.60643484E-15
   5.04000001E-02     5.50532706E-15
   5.07000014E-02     4.96062813E-15
   5.09999990E-02     3.96285042E-15
   5.13000004E-02     2.53687977E-15
   5.16000018E-02     7.43796148E-16
   5.18999994E-02    -1.31992985E-15
   5.22000007E-02    -3.52605967E-15
   5.24999984E-02    -5.72104179E-15
   5.27999997E-02    -7.73508963E-15
   5.31000011E-02    -9.39345732E-15
   5.33999987E-02    -1.05292819E-14
   5.37000000E-02    -1.09971761E-14
   5.40000014E-02    -1.06866073E-14
   5.42999990E-02    -9.53403938E-15
   5.46000004E-02    -7.53277327E-15
   5.49000017E-02    -4.73950255E-15
   5.51999994E-02    -1.27674335E-15
   5.55000007E-02     2.66948045E-15
   5.57999983E-02     6.85701419E-15
   5.60999997E-02     1.09999739E-14
   5.64000010E-02     1.47857529E-14
   5.66999987E-02     1.78957987E-14
   5.70000000E-02     2.00289580E-14
   5.73000014E-02     2.09258626E-14
   5.75999990E-02     2.03925774E-14
   5.79000004E-02     1.83216157E-14
   5.82000017E-02     1.47084425E-14
   5.84999993E-02     9.66175331E-15
   5.88000007E-02     3.40611345E-15
   5.90999983E-02    -3.72394562E-15
   5.93999997E-02    -1.12987351E-14
   5.97000010E-02    -1.88167793E-14
   5.99999987E-02    -2.57357053E-14
   6.03000000E-02    -3.15089209E-14
   6.06000014E-02    -3.56257280E-14
   6.08999990E-02    -3.76520138E-14
   6.12000003E-02    -3.72684773E-14
   6.15000017E-02    -3.43031030E-14
   6.17999993E-02    -2.87550169E-14
   6.21000007E-02    -2.08071373E-14
   6.23999983E-02    -1.08258366E-14
   6.27000034E-02     6.53289725E-16
   6.30000010E-02     1.29534114E-14
   6.32999986E-02     2.52969320E-14
   6.36000037E-02     3.68560976E-14
   6.39000013E-02     4.68104119E-14
   6.41999990E-02     5.44067761E-14
   6.44999966E-02     5.90177999E-14
   6.48000017E-02     6.01935832E-14
   6.50999993E-02     5.77025474E-14
   6.53999969E-02     5.15575707E-14
   6.57000020E-02     4.20245029E-14
   6.59999996E-02     2.96116992E-14
   6.62999973E-02     1.50403930E-14
   6.66000023E-02    -8.02523907E-16
   6.69000000E-02    -1.69263119E-14
   6.71999976E-02    -3.23084184E-14
   6.75000027E-02    -4.59713512E-14
   6.78000003E-02    -5.70583416E-14
   6.80999979E-02    -6.49015414E-14
   6.84000030E-02    -6.90769802E-14
   6.87000006E-02    -6.94410282E-14
   6.89999983E-02    -6.61447961E-14
   6.93000033E-02    -5.96242348E-14
   6.96000010E-02    -5.05657053E-14
   6.98999986E-02    -3.98488683E-14
   7.02000037E-02    -2.84705324E-14
   7.05000013E-02    -1.74549553E-14
   7.07999989E-02    -7.75743266E-15
   7.10999966E-02    -1.68850539E-16
   7.14000016E-02     4.77070005E-15
   7.16999993E-02     6.84148850E-15
   7.19999969E-02     6.18998083E-15
   7.23000020E-02     3.34549829E-15
   7.25999996E-02    -7.95847646E-16
   7.28999972E-02    -5.02120072E-15
   7.32000023E-02    -7.88379134E-15
   7.34999999E-02    -7.81483524E-15
   7.37999976E-02    -3.25841039E-15
   7.41000026E-02     7.17885495E-15
   7.44000003E-02     2.45730831E-14
   7.46999979E-02     4.95343140E-14
   7.50000030E-02     8.20748024E-14
   7.53000006E-02     1.21505480E-13
   7.55999982E-02     1.66370498E-13
   7.59000033E-02     2.14428193E-13
   7.62000009E-02     2.62684460E-13
   7.64999986E-02     3.07481633E-13
   7.68000036E-02     3.44643097E-13
   7.71000013E-02     3.69669844E-13
   7.73999989E-02     3.77982883E-13
   7.76999965E-02     3.65200735E-13
   7.80000016E-02     3.27440278E-13
   7.82999992E-02     2.61624733E-13
   7.85999969E-02     1.65783226E-13
   7.89000019E-02     3.93237926E-14
   7.91999996E-02    -1.16737064E-13
   7.94999972E-02    -2.99604688E-13
   7.98000023E-02    -5.04610568E-13
   8.00999999E-02    -7.25202288E-13
   8.03999975E-02    -9.53026720E-13
   8.07000026E-02    -1.17811143E-12
   8.10000002E-02    -1.38914195E-12
   8.12999979E-02    -1.57383286E-12
   8.16000029E-02    -1.71937996E-12
   8.19000006E-02    -1.81298292E-12
   8.21999982E-02    -1.84241923E-12
   8.25000033E-02    -1.79664974E-12
   8.28000009E-02    -1.66643327E-12
   8.30999985E-02    -1.44492643E-12
   8.34000036E-02    -1.12824203E-12
   8.37000012E-02    -7.15943852E-13
   8.39999989E-02    -2.11452532E-13
   8.42999965E-02     3.77658950E-13
   8.46000016E-02     1.03949889E-12
   8.48999992E-02     1.75783617E-12
   8.51999968E-02     2.51223673E-12
   8.55000019E-02     3.27836608E-12
   8.57999995E-02     4.02845942E-12
   8.60999972E-02     4.73196005E-12
   8.64000022E-02     5.35631695E-12
   8.66999999E-02     5.86792941E-12
   8.69999975E-02     6.23322704E-12
   8.73000026E-02     6.41985423E-12
   8.76000002E-02     6.39794511E-12
   8.78999978E-02     6.14144933E-12
   8.82000029E-02     5.62948603E-12
   8.85000005E-02     4.84768692E-12
   8.87999982E-02     3.78949519E-12
   8.91000032E-02     2.45738889E-12
   8.94000009E-02     8.63986020E-13
   8.96999985E-02    -9.66994388E-13
   9.00000036E-02    -2.99995532E-12
   9.03000012E-02    -5.18686136E-12
   9.05999988E-02    -7.46692898E-12
   9.08999965E-02    -9.76660332E-12
   9.12000015E-02    -1.19998646E-11
   9.14999992E-02    -1.40688962E-11
   9.17999968E-02    -1.58651668E-11
   9.21000019E-02    -1.72709815E-11
   9.23999995E-02    -1.81615400E-11
   9.26999971E-02    -1.84075827E-11
   9.30000022E-02    -1.78786638E-11
   9.32999998E-02    -1.64471301E-11
   9.35999975E-02    -1.39928572E-11
   9.39000025E-02    -1.04088110E-11
   9.42000002E-02    -5.60745807E-12
   9.44999978E-02     4.71897261E-13
   9.48000029E-02     7.85485912E-12
   9.51000005E-02     1.65227346E-11
   9.53999981E-02     2.64023855E-11
   9.57000032E-02     3.73551572E-11
   9.60000008E-02     4.91649048E-11
   9.62999985E-02     6.15251669E-11
   9.66000035E-02     7.40255149E-11
   9.69000012E-02     8.61371460E-11
   9.71999988E-02     9.71976943E-11
   9.74999964E-02     1.06395372E-10
   9.78000015E-02     1.12752321E-10
   9.80999991E-02     1.15107278E-10
   9.83999968E-02     1.12097311E-10
   9.87000018E-02     1.02138707E-10
   9.89999995E-02     8.34067052E-11
   9.92999971E-02     5.38139602E-11
   9.96000022E-02     1.09874393E-11
   9.98999998E-02    -4.77565036E-11
  0.100199997        -1.25439256E-10
  0.100500003        -2.25449645E-10
  0.100800000        -3.51576657E-10
  0.101099998        -5.08045661E-10
  0.101400003        -6.99558633E-10
  0.101700000        -9.31338784E-10
  0.101999998        -1.20918087E-09
  0.102300003        -1.53950641E-09
  0.102600001        -1.92942662E-09
  0.102899998        -2.38681119E-09
  0.103200004        -2.92036662E-09
  0.103500001        -3.53972185E-09
  0.103799999        -4.25552527E-09
  0.104099996        -5.07955189E-09
  0.104400001        -6.02482153E-09
  0.104699999        -7.10573023E-09
  0.104999997        -8.33819946E-09
  0.105300002        -9.73983383E-09
  0.105599999        -1.13301031E-08
  0.105899997        -1.31305349E-08
  0.106200002        -1.51649360E-08
  0.106500000        -1.74596266E-08
  0.106799997        -2.00437018E-08
  0.107100002        -2.29493153E-08
  0.107400000        -2.62119944E-08
  0.107699998        -2.98709750E-08
  0.108000003        -3.39695738E-08
  0.108300000        -3.85555801E-08
  0.108599998        -4.36816983E-08
  0.108900003        -4.94060082E-08
  0.109200001        -5.57924764E-08
  0.109499998        -6.29114894E-08
  0.109800003        -7.08404357E-08
  0.110100001        -7.96643462E-08
  0.110399999        -8.94765222E-08
  0.110699996        -1.00379310E-07
  0.111000001        -1.12484784E-07
  0.111299999        -1.25915633E-07
  0.111599997        -1.40805952E-07
  0.111900002        -1.57302196E-07
  0.112199999        -1.75564125E-07
  0.112499997        -1.95765836E-07
  0.112800002        -2.18096815E-07
  0.113100000        -2.42763122E-07
  0.113399997        -2.69988533E-07
  0.113700002        -3.00015785E-07
  0.114000000        -3.33107977E-07
  0.114299998        -3.69549866E-07
  0.114600003        -4.09649260E-07
  0.114900000        -4.53738693E-07
  0.115199998        -5.02176704E-07
  0.115500003        -5.55349686E-07
  0.115800001        -6.13673478E-07
  0.116099998        -6.77594926E-07
  0.116400003        -7.47593845E-07
  0.116700001        -8.24184610E-07
  0.116999999        -9.07918263E-07
  0.117299996        -9.99384042E-07
  0.117600001        -1.09921143E-06
  0.117899999        -1.20807192E-06
  0.118199997        -1.32668117E-06
  0.118500002        -1.45580054E-06
  0.118799999        -1.59623914E-06
  0.119099997        -1.74885542E-06
  0.119400002        -1.91455933E-06
  0.119700000        -2.09431391E-06
  0.119999997        -2.28913609E-06
  0.120300002        -2.50009975E-06
  0.120600000        -2.72833586E-06
  0.120899998        -2.97503425E-06
  0.121200003        -3.24144457E-06
  0.121500000        -3.52887696E-06
  0.121799998        -3.83870338E-06
  0.122100003        -4.17235742E-06
  0.122400001        -4.53133407E-06
  0.122699998        -4.91719175E-06
  0.123000003        -5.33154889E-06
  0.123300001        -5.77608398E-06
  0.123599999        -6.25253597E-06
  0.123899996        -6.76270020E-06
  0.124200001        -7.30842748E-06
  0.124499999        -7.89162095E-06
  0.124799997        -8.51423283E-06
  0.125100002        -9.17826037E-06
  0.125400007        -9.88573993E-06
  0.125699997        -1.06387461E-05
  0.126000002        -1.14393806E-05
  0.126300007        -1.22897673E-05
  0.126599997        -1.31920451E-05
  0.126900002        -1.41483606E-05
  0.127200007        -1.51608574E-05
  0.127499998        -1.62316646E-05
  0.127800003        -1.73628905E-05
  0.128099993        -1.85566023E-05
  0.128399998        -1.98148246E-05
  0.128700003        -2.11395127E-05
  0.128999993        -2.25325512E-05
  0.129299998        -2.39957244E-05
  0.129600003        -2.55307095E-05
  0.129899994        -2.71390545E-05
  0.130199999        -2.88221563E-05
  0.130500004        -3.05812500E-05
  0.130799994        -3.24173743E-05
  0.131099999        -3.43313659E-05
  0.131400004        -3.63238214E-05
  0.131699994        -3.83950864E-05
  0.131999999        -4.05452156E-05
  0.132300004        -4.27739651E-05
  0.132599995        -4.50807638E-05
  0.132900000        -4.74646658E-05
  0.133200005        -4.99243579E-05
  0.133499995        -5.24581046E-05
  0.133800000        -5.50637342E-05
  0.134100005        -5.77386127E-05
  0.134399995        -6.04796078E-05
  0.134700000        -6.32830706E-05
  0.135000005        -6.61448066E-05
  0.135299996        -6.90600500E-05
  0.135600001        -7.20234311E-05
  0.135900006        -7.50289691E-05
  0.136199996        -7.80700429E-05
  0.136500001        -8.11393547E-05
  0.136800006        -8.42289301E-05
  0.137099996        -8.73300960E-05
  0.137400001        -9.04334593E-05
  0.137700006        -9.35288990E-05
  0.137999997        -9.66055450E-05
  0.138300002        -9.96517847E-05
  0.138600007        -1.02655264E-04
  0.138899997        -1.05602849E-04
  0.139200002        -1.08480679E-04
  0.139500007        -1.11274130E-04
  0.139799997        -1.13967857E-04
  0.140100002        -1.16545780E-04
  0.140400007        -1.18991120E-04
  0.140699998        -1.21286430E-04
  0.141000003        -1.23413600E-04
  0.141299993        -1.25353894E-04
  0.141599998        -1.27088031E-04
  0.141900003        -1.28596177E-04
  0.142199993        -1.29857974E-04
  0.142499998        -1.30852713E-04
  0.142800003        -1.31559224E-04
  0.143099993        -1.31956112E-04
  0.143399999        -1.32021683E-04
  0.143700004        -1.31734123E-04
  0.143999994        -1.31071516E-04
  0.144299999        -1.30011991E-04
  0.144600004        -1.28533735E-04
  0.144899994        -1.26615152E-04
  0.145199999        -1.24234954E-04
  0.145500004        -1.21372243E-04
  0.145799994        -1.18006639E-04
  0.146100000        -1.14118382E-04
  0.146400005        -1.09688466E-04
  0.146699995        -1.04698745E-04
  0.147000000        -9.91320485E-05
  0.147300005        -9.29723246E-05
  0.147599995        -8.62047382E-05
  0.147900000        -7.88158140E-05
  0.148200005        -7.07935687E-05
  0.148499995        -6.21275976E-05
  0.148800001        -5.28092496E-05
  0.149100006        -4.28317107E-05
  0.149399996        -3.21901243E-05
  0.149700001        -2.08817328E-05
  0.150000006        -8.90594947E-06
  0.150299996         3.73550256E-06
  0.150600001         1.70385119E-05
  0.150900006         3.09964817E-05
  0.151199996         4.56002344E-05
  0.151500002         6.08379523E-05
  0.151800007         7.66950907E-05
  0.152099997         9.31543327E-05
  0.152400002         1.10195542E-04
  0.152700007         1.27795705E-04
  0.152999997         1.45928934E-04
  0.153300002         1.64566431E-04
  0.153600007         1.83676486E-04
  0.153899997         2.03224510E-04
  0.154200003         2.23173047E-04
  0.154499993         2.43481787E-04
  0.154799998         2.64107686E-04
  0.155100003         2.85004964E-04
  0.155399993         3.06125236E-04
  0.155699998         3.27417569E-04
  0.156000003         3.48828617E-04
  0.156299993         3.70302761E-04
  0.156599998         3.91782232E-04
  0.156900004         4.13207221E-04
  0.157199994         4.34516143E-04
  0.157499999         4.55645757E-04
  0.157800004         4.76531335E-04
  0.158099994         4.97106987E-04
  0.158399999         5.17305685E-04
  0.158700004         5.37059677E-04
  0.158999994         5.56300627E-04
  0.159299999         5.74959966E-04
  0.159600005         5.92968834E-04
  0.159899995         6.10258896E-04
  0.160200000         6.26761990E-04
  0.160500005         6.42410945E-04
  0.160799995         6.57139462E-04
  0.161100000         6.70882524E-04
  0.161400005         6.83576800E-04
  0.161699995         6.95160765E-04
  0.162000000         7.05574988E-04
  0.162300006         7.14762544E-04
  0.162599996         7.22669007E-04
  0.162900001         7.29243038E-04
  0.163200006         7.34436384E-04
  0.163499996         7.38204340E-04
  0.163800001         7.40505755E-04
  0.164100006         7.41303433E-04
  0.164399996         7.40564254E-04
  0.164700001         7.38259347E-04
  0.165000007         7.34364381E-04
  0.165299997         7.28859683E-04
  0.165600002         7.21730350E-04
  0.165900007         7.12966372E-04
  0.166199997         7.02562800E-04
  0.166500002         6.90519752E-04
  0.166800007         6.76842639E-04
  0.167099997         6.61542057E-04
  0.167400002         6.44633896E-04
  0.167699993         6.26139168E-04
  0.167999998         6.06084475E-04
  0.168300003         5.84501249E-04
  0.168599993         5.61426452E-04
  0.168899998         5.36901876E-04
  0.169200003         5.10974380E-04
  0.169499993         4.83695680E-04
  0.169799998         4.55122208E-04
  0.170100003         4.25314880E-04
  0.170399994         3.94339062E-04
  0.170699999         3.62264225E-04
  0.171000004         3.29163711E-04
  0.171299994         2.95114674E-04
  0.171599999         2.60197587E-04
  0.171900004         2.24496151E-04
  0.172199994         1.88096950E-04
  0.172499999         1.51089116E-04
  0.172800004         1.13564078E-04
  0.173099995         7.56152367E-05
  0.173400000         3.73376024E-05
  0.173700005        -1.17249317E-06
  0.173999995        -3.98177654E-05
  0.174300000        -7.85002921E-05
  0.174600005        -1.17121883E-04
  0.174899995        -1.55584406E-04
  0.175200000        -1.93790125E-04
  0.175500005        -2.31642043E-04
  0.175799996        -2.69044278E-04
  0.176100001        -3.05902329E-04
  0.176400006        -3.42123414E-04
  0.176699996        -3.77616874E-04
  0.177000001        -4.12294350E-04
  0.177300006        -4.46070189E-04
  0.177599996        -4.78861592E-04
  0.177900001        -5.10589103E-04
  0.178200006        -5.41176589E-04
  0.178499997        -5.70551783E-04
  0.178800002        -5.98646235E-04
  0.179100007        -6.25395740E-04
  0.179399997        -6.50740345E-04
  0.179700002        -6.74624695E-04
  0.180000007        -6.96998090E-04
  0.180299997        -7.17814604E-04
  0.180600002        -7.37033319E-04
  0.180899993        -7.54618261E-04
  0.181199998        -7.70538580E-04
  0.181500003        -7.84768665E-04
  0.181799993        -7.97287968E-04
  0.182099998        -8.08081415E-04
  0.182400003        -8.17138818E-04
  0.182699993        -8.24455521E-04