  -5.99999987E-02     0.00000000    
  -5.97000010E-02     0.00000000    
  -5.93999997E-02     0.00000000    
  -5.90999983E-02     0.00000000    
  -5.88000007E-02     0.00000000    
  -5.84999993E-02     0.00000000    
  -5.82000017E-02     0.00000000    
  -5.79000004E-02     0.00000000    
  -5.75999990E-02     0.00000000    
  -5.73000014E-02     0.00000000    
  -5.70000000E-02     0.00000000    
  -5.66999987E-02     0.00000000    
  -5.64000010E-02     0.00000000    
  -5.60999997E-02     0.00000000    
  -5.57999983E-02     0.00000000    
  -5.55000007E-02     0.00000000    
  -5.51999994E-02     0.00000000    
  -5.49000017E-02     0.00000000    
  -5.46000004E-02     0.00000000    
  -5.42999990E-02     0.00000000    
  -5.40000014E-02     0.00000000    
  -5.37000000E-02     0.00000000    
  -5.33999987E-02     0.00000000    
  -5.31000011E-02     0.00000000    
  -5.27999997E-02     0.00000000    
  -5.24999984E-02     0.00000000    
  -5.22000007E-02     0.00000000    
  -5.18999994E-02     0.00000000    
  -5.16000018E-02     0.00000000    
  -5.13000004E-02     0.00000000    
  -5.09999990E-02     0.00000000    
  -5.07000014E-02     0.00000000    
  -5.04000001E-02     0.00000000    
  -5.00999987E-02     0.00000000    
  -4.98000011E-02     0.00000000    
  -4.94999997E-02     0.00000000    
  -4.91999984E-02     0.00000000    
  -4.89000008E-02     0.00000000    
  -4.85999994E-02     0.00000000    
  -4.83000018E-02     0.00000000    
  -4.80000004E-02     0.00000000    
  -4.76999991E-02     0.00000000    
  -4.74000014E-02     0.00000000    
  -4.71000001E-02     0.00000000    
  -4.67999987E-02     0.00000000    
  -4.65000011E-02     0.00000000    
  -4.61999997E-02     0.00000000    
  -4.58999984E-02     0.00000000    
  -4.56000008E-02     0.00000000    
  -4.52999994E-02     0.00000000    
  -4.50000018E-02     0.00000000    
  -4.47000004E-02     0.00000000    
  -4.43999991E-02     0.00000000    
  -4.41000015E-02     0.00000000    
  -4.38000001E-02     0.00000000    
  -4.34999987E-02     0.00000000    
  -4.32000011E-02     0.00000000    
  -4.28999998E-02     0.00000000    
  -4.25999984E-02     0.00000000    
  -4.23000008E-02     0.00000000    
  -4.19999994E-02     0.00000000    
  -4.17000018E-02     0.00000000    
  -4.14000005E-02     0.00000000    
  -4.10999991E-02     0.00000000    
  -4.08000015E-02     0.00000000    
  -4.05000001E-02     0.00000000    
  -4.01999988E-02     0.00000000    
  -3.99000011E-02     0.00000000    
  -3.95999998E-02     0.00000000    
  -3.92999984E-02     0.00000000    
  -3.90000008E-02     0.00000000    
  -3.86999995E-02     0.00000000    
  -3.84000018E-02     0.00000000    
  -3.81000005E-02     0.00000000    
  -3.77999991E-02     0.00000000    
  -3.75000015E-02     0.00000000    
  -3.72000001E-02     0.00000000    
  -3.68999988E-02     0.00000000    
  -3.66000012E-02     0.00000000    
  -3.62999998E-02     0.00000000    
  -3.59999985E-02     0.00000000    
  -3.57000008E-02     0.00000000    
  -3.53999995E-02     0.00000000    
  -3.51000018E-02     0.00000000    
  -3.48000005E-02     0.00000000    
  -3.44999991E-02     0.00000000    
  -3.42000015E-02     0.00000000    
  -3.39000002E-02     0.00000000    
  -3.35999988E-02     0.00000000    
  -3.33000012E-02     0.00000000    
  -3.29999998E-02     0.00000000    
  -3.26999985E-02     0.00000000    
  -3.24000008E-02     0.00000000    
  -3.20999995E-02     0.00000000    
  -3.18000019E-02     0.00000000    
  -3.15000005E-02     0.00000000    
  -3.11999992E-02     0.00000000    
  -3.08999997E-02     0.00000000    
  -3.06000002E-02     0.00000000    
  -3.03000007E-02     0.00000000    
  -2.99999993E-02     0.00000000    
  -2.96999998E-02     0.00000000    
  -2.94000003E-02     0.00000000    
  -2.91000009E-02     0.00000000    
  -2.87999995E-02     0.00000000    
  -2.85000000E-02     0.00000000    
  -2.82000005E-02     0.00000000    
  -2.78999992E-02     0.00000000    
  -2.75999997E-02     0.00000000    
  -2.73000002E-02     0.00000000    
  -2.70000007E-02     0.00000000    
  -2.66999993E-02     0.00000000    
  -2.63999999E-02     0.00000000    
  -2.61000004E-02     0.00000000    
  -2.58000009E-02     0.00000000    
  -2.54999995E-02     0.00000000    
  -2.52000000E-02     0.00000000    
  -2.49000005E-02     0.00000000    
  -2.45999992E-02     0.00000000    
  -2.42999997E-02     0.00000000    
  -2.40000002E-02     0.00000000    
  -2.37000007E-02     0.00000000    
  -2.33999994E-02     0.00000000    
  -2.30999999E-02     0.00000000    
  -2.28000004E-02     0.00000000    
  -2.25000009E-02     0.00000000    
  -2.21999995E-02     0.00000000    
  -2.19000001E-02     0.00000000    
  -2.16000006E-02     0.00000000    
  -2.12999992E-02     0.00000000    
  -2.09999997E-02     0.00000000    
  -2.07000002E-02     0.00000000    
  -2.04000007E-02     0.00000000    
  -2.00999994E-02     0.00000000    
  -1.97999999E-02     0.00000000    
  -1.95000004E-02     0.00000000    
  -1.92000009E-02     0.00000000    
  -1.88999996E-02     0.00000000    
  -1.86000001E-02     0.00000000    
  -1.83000006E-02     0.00000000    
  -1.79999992E-02     0.00000000    
  -1.76999997E-02     0.00000000    
  -1.74000002E-02     0.00000000    
  -1.71000008E-02     0.00000000    
  -1.67999994E-02     0.00000000    
  -1.64999999E-02     0.00000000    
  -1.62000004E-02     0.00000000    
  -1.59000009E-02     0.00000000    
  -1.55999996E-02     0.00000000    
  -1.53000001E-02     0.00000000    
  -1.49999997E-02     0.00000000    
  -1.47000002E-02     0.00000000    
  -1.43999998E-02     0.00000000    
  -1.41000003E-02     0.00000000    
  -1.37999998E-02     0.00000000    
  -1.35000004E-02     0.00000000    
  -1.31999999E-02     0.00000000    
  -1.29000004E-02     0.00000000    
  -1.26000000E-02     0.00000000    
  -1.22999996E-02     0.00000000    
  -1.20000001E-02     0.00000000    
  -1.16999997E-02     0.00000000    
  -1.14000002E-02     0.00000000    
  -1.10999998E-02     0.00000000    
  -1.08000003E-02     0.00000000    
  -1.04999999E-02     0.00000000    
  -1.02000004E-02     0.00000000    
  -9.89999995E-03     0.00000000    
  -9.60000046E-03     0.00000000    
  -9.30000003E-03     0.00000000    
  -8.99999961E-03     0.00000000    
  -8.70000012E-03     0.00000000    
  -8.39999970E-03     0.00000000    
  -8.10000021E-03     0.00000000    
  -7.79999979E-03     0.00000000    
  -7.49999983E-03     0.00000000    
  -7.19999988E-03     0.00000000    
  -6.89999992E-03     0.00000000    
  -6.59999996E-03     0.00000000    
  -6.30000001E-03     0.00000000    
  -6.00000005E-03     0.00000000    
  -5.70000010E-03     0.00000000    
  -5.40000014E-03     0.00000000    
  -5.10000018E-03     0.00000000    
  -4.80000023E-03     0.00000000    
  -4.49999981E-03     0.00000000    
  -4.19999985E-03     0.00000000    
  -3.89999989E-03     0.00000000    
  -3.59999994E-03     0.00000000    
  -3.29999998E-03     0.00000000    
  -3.00000003E-03     0.00000000    
  -2.70000007E-03     0.00000000    
  -2.40000011E-03     0.00000000    
  -2.09999993E-03     0.00000000    
  -1.79999997E-03     0.00000000    
  -1.50000001E-03     0.00000000    
  -1.20000006E-03     0.00000000    
  -8.99999985E-04     0.00000000    
  -6.00000028E-04     0.00000000    
  -3.00000014E-04     0.00000000    
   0.00000000         0.00000000    
   3.00000014E-04     0.00000000    
   6.00000028E-04     0.00000000    
   8.99999985E-04     0.00000000    
   1.20000006E-03     0.00000000    
   1.50000001E-03     0.00000000    
   1.79999997E-03     0.00000000    
   2.09999993E-03     0.00000000    
   2.40000011E-03     0.00000000    
   2.70000007E-03     0.00000000    
   3.00000003E-03     0.00000000    
   3.29999998E-03     0.00000000    
   3.59999994E-03     0.00000000    
   3.89999989E-03     0.00000000    
   4.19999985E-03     0.00000000    
   4.49999981E-03     0.00000000    
   4.80000023E-03     0.00000000    
   5.10000018E-03     0.00000000    
   5.40000014E-03     0.00000000    
   5.70000010E-03     0.00000000    
   6.00000005E-03     0.00000000    
   6.30000001E-03     0.00000000    
   6.59999996E-03     0.00000000    
   6.89999992E-03     0.00000000    
   7.19999988E-03     0.00000000    
   7.49999983E-03     0.00000000    
   7.79999979E-03     0.00000000    
   8.10000021E-03     0.00000000    
   8.39999970E-03     0.00000000    
   8.70000012E-03     0.00000000    
   8.99999961E-03     0.00000000    
   9.30000003E-03     0.00000000    
   9.60000046E-03     0.00000000    
   9.89999995E-03     0.00000000    
   1.02000004E-02     0.00000000    
   1.04999999E-02     0.00000000    
   1.08000003E-02     0.00000000    
   1.10999998E-02     0.00000000    
   1.14000002E-02     0.00000000    
   1.16999997E-02     0.00000000    
   1.20000001E-02     0.00000000    
   1.22999996E-02     0.00000000    
   1.26000000E-02     0.00000000    
   1.29000004E-02     0.00000000    
   1.31999999E-02     0.00000000    
   1.35000004E-02     0.00000000    
   1.37999998E-02     0.00000000    
   1.41000003E-02     0.00000000    
   1.43999998E-02     0.00000000    
   1.47000002E-02     0.00000000    
   1.49999997E-02     0.00000000    
   1.53000001E-02     0.00000000    
   1.55999996E-02     0.00000000    
   1.59000009E-02     0.00000000    
   1.62000004E-02     0.00000000    
   1.64999999E-02     0.00000000    
   1.67999994E-02     0.00000000    
   1.71000008E-02     0.00000000    
   1.74000002E-02     0.00000000    
   1.76999997E-02     0.00000000    
   1.79999992E-02     0.00000000    
   1.83000006E-02     0.00000000    
   1.86000001E-02     0.00000000    
   1.88999996E-02     0.00000000    
   1.92000009E-02     0.00000000    
   1.95000004E-02     0.00000000    
   1.97999999E-02     0.00000000    
   2.00999994E-02     0.00000000    
   2.04000007E-02     0.00000000    
   2.07000002E-02     0.00000000    
   2.09999997E-02     0.00000000    
   2.12999992E-02     0.00000000    
   2.16000006E-02     0.00000000    
   2.19000001E-02     0.00000000    
   2.21999995E-02     0.00000000    
   2.25000009E-02     0.00000000    
   2.28000004E-02     0.00000000    
   2.30999999E-02     0.00000000    
   2.33999994E-02     0.00000000    
   2.37000007E-02     0.00000000    
   2.40000002E-02     0.00000000    
   2.42999997E-02     0.00000000    
   2.45999992E-02     0.00000000    
   2.49000005E-02     0.00000000    
   2.52000000E-02     0.00000000    
   2.54999995E-02     0.00000000    
   2.58000009E-02     0.00000000    
   2.61000004E-02     0.00000000    
   2.63999999E-02     0.00000000    
   2.66999993E-02     0.00000000    
   2.70000007E-02     0.00000000    
   2.73000002E-02     0.00000000    
   2.75999997E-02     0.00000000    
   2.78999992E-02     0.00000000    
   2.82000005E-02     0.00000000    
   2.85000000E-02     0.00000000    
   2.87999995E-02     0.00000000    
   2.91000009E-02     0.00000000    
   2.94000003E-02     0.00000000    
   2.96999998E-02     0.00000000    
   2.99999993E-02     0.00000000    
   3.03000007E-02     0.00000000    
   3.06000002E-02     0.00000000    
   3.08999997E-02     0.00000000    
   3.11999992E-02     0.00000000    
   3.15000005E-02     0.00000000    
   3.18000019E-02     0.00000000    
   3.20999995E-02     0.00000000    
   3.24000008E-02     0.00000000    
   3.26999985E-02     0.00000000    
   3.29999998E-02     0.00000000    
   3.33000012E-02     0.00000000    
   3.35999988E-02     0.00000000    
   3.39000002E-02     0.00000000    
   3.42000015E-02     0.00000000    
   3.44999991E-02     0.00000000    
   3.48000005E-02     0.00000000    
   3.51000018E-02     0.00000000    
   3.53999995E-02     0.00000000    
   3.57000008E-02     0.00000000    
   3.59999985E-02     0.00000000    
   3.62999998E-02     0.00000000    
   3.66000012E-02     0.00000000    
   3.68999988E-02     0.00000000    
   3.72000001E-02     0.00000000    
   3.75000015E-02     0.00000000    
   3.77999991E-02     0.00000000    
   3.81000005E-02     0.00000000    
   3.84000018E-02     0.00000000    
   3.86999995E-02     0.00000000    
   3.90000008E-02     0.00000000    
   3.92999984E-02     0.00000000    
   3.95999998E-02     0.00000000    
   3.99000011E-02     0.00000000    
   4.01999988E-02     0.00000000    
   4.05000001E-02     0.00000000    
   4.08000015E-02     0.00000000    
   4.10999991E-02     0.00000000    
   4.14000005E-02     0.00000000    
   4.17000018E-02     0.00000000    
   4.19999994E-02     0.00000000    
   4.23000008E-02     0.00000000    
   4.25999984E-02     0.00000000    
   4.28999998E-02     0.00000000    
   4.32000011E-02     0.00000000    
   4.34999987E-02     0.00000000    
   4.38000001E-02     0.00000000    
   4.41000015E-02     0.00000000    
   4.43999991E-02     0.00000000    
   4.47000004E-02     0.00000000    
   4.50000018E-02     0.00000000    
   4.52999994E-02     0.00000000    
   4.56000008E-02     0.00000000    
   4.58999984E-02     0.00000000    
   4.61999997E-02     0.00000000    
   4.65000011E-02     0.00000000    
   4.67999987E-02     0.00000000    
   4.71000001E-02     0.00000000    
   4.74000014E-02     0.00000000    
   4.76999991E-02     0.00000000    
   4.80000004E-02     0.00000000    
   4.83000018E-02     0.00000000    
   4.85999994E-02     0.00000000    
   4.89000008E-02     0.00000000    
   4.91999984E-02     0.00000000    
   4.94999997E-02     0.00000000    
   4.98000011E-02     0.00000000    
   5.00999987E-02     0.00000000    
   5.04000001E-02     0.00000000    
   5.07000014E-02     0.00000000    
   5.09999990E-02     0.00000000    
   5.13000004E-02     0.00000000    
   5.16000018E-02     0.00000000    
   5.18999994E-02     0.00000000    
   5.22000007E-02     0.00000000    
   5.24999984E-02     0.00000000    
   5.27999997E-02     0.00000000    
   5.31000011E-02     0.00000000    
   5.33999987E-02     0.00000000    
   5.37000000E-02     0.00000000    
   5.40000014E-02     0.00000000    
   5.42999990E-02     0.00000000    
   5.46000004E-02     0.00000000    
   5.49000017E-02     0.00000000    
   5.51999994E-02     0.00000000    
   5.55000007E-02     0.00000000    
   5.57999983E-02     0.00000000    
   5.60999997E-02     0.00000000    
   5.64000010E-02     0.00000000    
   5.66999987E-02     0.00000000    
   5.70000000E-02     0.00000000    
   5.73000014E-02     0.00000000    
   5.75999990E-02     0.00000000    
   5.79000004E-02     0.00000000    
   5.82000017E-02     0.00000000    
   5.84999993E-02     0.00000000    
   5.88000007E-02     0.00000000    
   5.90999983E-02     0.00000000    
   5.93999997E-02     0.00000000    
   5.97000010E-02     0.00000000    
   5.99999987E-02     0.00000000    
   6.03000000E-02     0.00000000    
   6.06000014E-02     0.00000000    
   6.08999990E-02     0.00000000    
   6.12000003E-02     0.00000000    
   6.15000017E-02     0.00000000    
   6.17999993E-02     0.00000000    
   6.21000007E-02     0.00000000    
   6.23999983E-02     0.00000000    
   6.27000034E-02     0.00000000    
   6.30000010E-02     0.00000000    
   6.32999986E-02     0.00000000    
   6.36000037E-02     0.00000000    
   6.39000013E-02     0.00000000    
   6.41999990E-02     0.00000000    
   6.44999966E-02     0.00000000    
   6.48000017E-02     0.00000000    
   6.50999993E-02     0.00000000    
   6.53999969E-02     0.00000000    
   6.57000020E-02     0.00000000    
   6.59999996E-02     0.00000000    
   6.62999973E-02     0.00000000    
   6.66000023E-02     0.00000000    
   6.69000000E-02     0.00000000    
   6.71999976E-02     0.00000000    
   6.75000027E-02     0.00000000    
   6.78000003E-02     0.00000000    
   6.80999979E-02     0.00000000    
   6.84000030E-02     0.00000000    
   6.87000006E-02     0.00000000    
   6.89999983E-02     0.00000000    
   6.93000033E-02     0.00000000    
   6.96000010E-02     0.00000000    
   6.98999986E-02     0.00000000    
   7.02000037E-02     0.00000000    
   7.05000013E-02     0.00000000    
   7.07999989E-02     0.00000000    
   7.10999966E-02     0.00000000    
   7.14000016E-02     0.00000000    
   7.16999993E-02     0.00000000    
   7.19999969E-02     0.00000000    
   7.23000020E-02     0.00000000    
   7.25999996E-02     0.00000000    
   7.28999972E-02     0.00000000    
   7.32000023E-02     0.00000000    
   7.34999999E-02     0.00000000    
   7.37999976E-02     0.00000000    
   7.41000026E-02     0.00000000    
   7.44000003E-02     0.00000000    
   7.46999979E-02     0.00000000    
   7.50000030E-02     0.00000000    
   7.53000006E-02     0.00000000    
   7.55999982E-02     0.00000000    
   7.59000033E-02     0.00000000    
   7.62000009E-02     0.00000000    
   7.64999986E-02     0.00000000    
   7.68000036E-02     0.00000000    
   7.71000013E-02     0.00000000    
   7.73999989E-02     0.00000000    
   7.76999965E-02     0.00000000    
   7.80000016E-02     0.00000000    
   7.82999992E-02     0.00000000    
   7.85999969E-02     0.00000000    
   7.89000019E-02     0.00000000    
   7.91999996E-02     0.00000000    
   7.94999972E-02     0.00000000    
   7.98000023E-02     0.00000000    
   8.00999999E-02     0.00000000    
   8.03999975E-02     0.00000000    
   8.07000026E-02     0.00000000    
   8.10000002E-02     0.00000000    
   8.12999979E-02     0.00000000    
   8.16000029E-02     0.00000000    
   8.19000006E-02     0.00000000    
   8.21999982E-02     0.00000000    
   8.25000033E-02     0.00000000    
   8.28000009E-02     0.00000000    
   8.30999985E-02     0.00000000    
   8.34000036E-02     0.00000000    
   8.37000012E-02     0.00000000    
   8.39999989E-02     0.00000000    
   8.42999965E-02     0.00000000    
   8.46000016E-02     0.00000000    
   8.48999992E-02     0.00000000    
   8.51999968E-02     0.00000000    
   8.55000019E-02     0.00000000    
   8.57999995E-02     0.00000000    
   8.60999972E-02     0.00000000    
   8.64000022E-02     0.00000000    
   8.66999999E-02     0.00000000    
   8.69999975E-02     0.00000000    
   8.73000026E-02     0.00000000    
   8.76000002E-02     0.00000000    
   8.78999978E-02     0.00000000    
   8.82000029E-02     0.00000000    
   8.85000005E-02     0.00000000    
   8.87999982E-02     0.00000000    
   8.91000032E-02     0.00000000    
   8.94000009E-02     0.00000000    
   8.96999985E-02     0.00000000    
   9.00000036E-02     0.00000000    
   9.03000012E-02     0.00000000    
   9.05999988E-02     0.00000000    
   9.08999965E-02     0.00000000    
   9.12000015E-02     0.00000000    
   9.14999992E-02     0.00000000    
   9.17999968E-02     0.00000000    
   9.21000019E-02     0.00000000    
   9.23999995E-02     0.00000000    
   9.26999971E-02     0.00000000    
   9.30000022E-02     0.00000000    
   9.32999998E-02     0.00000000    
   9.35999975E-02     0.00000000    
   9.39000025E-02     0.00000000    
   9.42000002E-02     0.00000000    
   9.44999978E-02     0.00000000    
   9.48000029E-02     0.00000000    
   9.51000005E-02     0.00000000    
   9.53999981E-02     0.00000000    
   9.57000032E-02     0.00000000    
   9.60000008E-02     0.00000000    
   9.62999985E-02     0.00000000    
   9.66000035E-02     0.00000000    
   9.69000012E-02     0.00000000    
   9.71999988E-02    -0.00000000    
   9.74999964E-02    -0.00000000    
   9.78000015E-02    -0.00000000    
   9.80999991E-02    -0.00000000    
   9.83999968E-02    -0.00000000    
   9.87000018E-02    -0.00000000    
   9.89999995E-02    -0.00000000    
   9.92999971E-02     0.00000000    
   9.96000022E-02     0.00000000    
   9.98999998E-02     0.00000000    
  0.100199997         0.00000000    
  0.100500003         0.00000000    
  0.100800000         0.00000000    
  0.101099998         0.00000000    
  0.101400003         0.00000000    
  0.101700000         0.00000000    
  0.101999998         0.00000000    
  0.102300003        -0.00000000    
  0.102600001        -0.00000000    
  0.102899998        -0.00000000    
  0.103200004        -0.00000000    
  0.103500001        -0.00000000    
  0.103799999        -0.00000000    
  0.104099996        -0.00000000    
  0.104400001        -0.00000000    
  0.104699999        -0.00000000    
  0.104999997        -0.00000000    
  0.105300002        -0.00000000    
  0.105599999         0.00000000    
  0.105899997         0.00000000    
  0.106200002         0.00000000    
  0.106500000         0.00000000    
  0.106799997         0.00000000    
  0.107100002         0.00000000    
  0.107400000         0.00000000    
  0.107699998         0.00000000    
  0.108000003         0.00000000    
  0.108300000         0.00000000    
  0.108599998         0.00000000    
  0.108900003        -0.00000000    
  0.109200001        -0.00000000    
  0.109499998        -0.00000000    
  0.109800003        -0.00000000    
  0.110100001        -0.00000000    
  0.110399999        -0.00000000    
  0.110699996        -0.00000000    
  0.111000001        -0.00000000    
  0.111299999        -0.00000000    
  0.111599997        -0.00000000    
  0.111900002         0.00000000    
  0.112199999         0.00000000    
  0.112499997         0.00000000    
  0.112800002         0.00000000    
  0.113100000         0.00000000    
  0.113399997         0.00000000    
  0.113700002         0.00000000    
  0.114000000         0.00000000    
  0.114299998         0.00000000    
  0.114600003         0.00000000    
  0.114900000         0.00000000    
  0.115199998        -0.00000000    
  0.115500003        -0.00000000    
  0.115800001        -0.00000000    
  0.116099998        -0.00000000    
  0.116400003        -0.00000000    
  0.116700001        -0.00000000    
  0.116999999        -0.00000000    
  0.117299996        -0.00000000    
  0.117600001        -0.00000000    
  0.117899999        -0.00000000    
  0.118199997         0.00000000    
  0.118500002         0.00000000    
  0.118799999         0.00000000    
  0.119099997         0.00000000    
  0.119400002         0.00000000    
  0.119700000         0.00000000    
  0.119999997         0.00000000    
  0.120300002         0.00000000    
  0.120600000         0.00000000    
  0.120899998         0.00000000    
  0.121200003        -0.00000000    
  0.121500000        -0.00000000    
  0.121799998        -0.00000000    
  0.122100003        -0.00000000    
  0.122400001        -0.00000000    
  0.122699998        -0.00000000    
  0.123000003        -0.00000000    
  0.123300001        -0.00000000    
  0.123599999        -0.00000000    
  0.123899996        -0.00000000    
  0.124200001         0.00000000    
  0.124499999         0.00000000    
  0.124799997         0.00000000    
  0.125100002         0.00000000    
  0.125400007         0.00000000    
  0.125699997         0.00000000    
  0.126000002         0.00000000    
  0.126300007         0.00000000    
  0.126599997         0.00000000    
  0.126900002         0.00000000    
  0.127200007         0.00000000    
  0.127499998        -0.00000000    
  0.127800003        -0.00000000    
  0.128099993        -0.00000000    
  0.128399998        -0.00000000    
  0.128700003        -0.00000000    
  0.128999993        -0.00000000    
  0.129299998        -0.00000000    
  0.129600003        -0.00000000    
  0.129899994        -0.00000000    
  0.130199999        -0.00000000    
  0.130500004         0.00000000    
  0.130799994         0.00000000    
  0.131099999         0.00000000    
  0.131400004         0.00000000    
  0.131699994         0.00000000    
  0.131999999         0.00000000    
  0.132300004         0.00000000    
  0.132599995         0.00000000    
  0.132900000         0.00000000    
  0.133200005         0.00000000    
  0.133499995        -0.00000000    
  0.133800000        -0.00000000    
  0.134100005        -0.00000000    
  0.134399995        -0.00000000    
  0.134700000        -0.00000000    
  0.135000005        -0.00000000    
  0.135299996        -0.00000000    
  0.135600001        -0.00000000    
  0.135900006        -0.00000000    
  0.136199996        -0.00000000    
  0.136500001         0.00000000    
  0.136800006         0.00000000    
  0.137099996         0.00000000    
  0.137400001         0.00000000    
  0.137700006         0.00000000    
  0.137999997         0.00000000    
  0.138300002         0.00000000    
  0.138600007         0.00000000    
  0.138899997         0.00000000    
  0.139200002         0.00000000    
  0.139500007        -0.00000000    
  0.139799997        -0.00000000    
  0.140100002        -0.00000000    
  0.140400007        -0.00000000    
  0.140699998        -0.00000000    
  0.141000003        -0.00000000    
  0.141299993        -0.00000000    
  0.141599998        -0.00000000    
  0.141900003        -0.00000000    
  0.142199993        -0.00000000    
  0.142499998         0.00000000    
  0.142800003         0.00000000    
  0.143099993         0.00000000    
  0.143399999         0.00000000    
  0.143700004         0.00000000    
  0.143999994         0.00000000    
  0.144299999         0.00000000    
  0.144600004         0.00000000    
  0.144899994         0.00000000    
  0.145199999         0.00000000    
  0.145500004        -0.00000000    
  0.145799994        -0.00000000    
  0.146100000        -0.00000000    
  0.146400005        -0.00000000    
  0.146699995        -0.00000000    
  0.147000000        -0.00000000    
  0.147300005        -0.00000000    
  0.147599995        -0.00000000    
  0.147900000        -0.00000000    
  0.148200005        -0.00000000    
  0.148499995         0.00000000    
  0.148800001         0.00000000    
  0.149100006         0.00000000    
  0.149399996         0.00000000    
  0.149700001         0.00000000    
  0.150000006         0.00000000    
  0.150299996         0.00000000    
  0.150600001         0.00000000    
  0.150900006         0.00000000    
  0.151199996        -0.00000000    
  0.151500002        -0.00000000    
  0.151800007        -0.00000000    
  0.152099997        -0.00000000    
  0.152400002        -0.00000000    
  0.152700007        -0.00000000    
  0.152999997        -0.00000000    
  0.153300002        -0.00000000    
  0.153600007        -0.00000000    
  0.153899997        -0.00000000    
  0.154200003         0.00000000    
  0.154499993         0.00000000    
  0.154799998         0.00000000    
  0.155100003         0.00000000    
  0.155399993         0.00000000    
  0.155699998         0.00000000    
  0.156000003         0.00000000    
  0.156299993         0.00000000    
  0.156599998         0.00000000    
  0.156900004         0.00000000    
  0.157199994        -0.00000000    
  0.157499999        -0.00000000    
  0.157800004        -0.00000000    
  0.158099994        -0.00000000    
  0.158399999        -0.00000000    
  0.158700004        -0.00000000    
  0.158999994        -0.00000000    
  0.159299999        -0.00000000    
  0.159600005        -0.00000000    
  0.159899995        -0.00000000    
  0.160200000         0.00000000    
  0.160500005         0.00000000    
  0.160799995         0.00000000    
  0.161100000         0.00000000    
  0.161400005         0.00000000    
  0.161699995         0.00000000    
  0.162000000         0.00000000    
  0.162300006         0.00000000    
  0.162599996         0.00000000    
  0.162900001         0.00000000    
  0.163200006        -0.00000000    
  0.163499996        -0.00000000    
  0.163800001        -0.00000000    
  0.164100006        -0.00000000    
  0.164399996        -0.00000000    
  0.164700001        -0.00000000    
  0.165000007        -0.00000000    
  0.165299997        -0.00000000    
  0.165600002        -0.00000000    
  0.165900007         0.00000000    
  0.166199997         0.00000000    
  0.166500002         0.00000000    
  0.166800007         0.00000000    
  0.167099997         0.00000000    
  0.167400002         0.00000000    
  0.167699993         0.00000000    
  0.167999998         0.00000000    
  0.168300003         0.00000000    
  0.168599993         0.00000000    
  0.168899998        -0.00000000    
  0.169200003        -0.00000000    
  0.169499993        -0.00000000    
  0.169799998        -0.00000000    
  0.170100003        -0.00000000    
  0.170399994        -0.00000000    
  0.170699999        -0.00000000    
  0.171000004        -0.00000000    
  0.171299994        -0.00000000    
  0.171599999        -0.00000000    
  0.171900004         0.00000000    
  0.172199994         0.00000000    
  0.172499999         0.00000000    
  0.172800004         0.00000000    
  0.173099995         0.00000000    
  0.173400000         0.00000000    
  0.173700005         0.00000000    
  0.173999995         0.00000000    
  0.174300000         0.00000000    
  0.174600005         0.00000000    
  0.174899995        -0.00000000    
  0.175200000        -0.00000000    
  0.175500005        -0.00000000    
  0.175799996        -0.00000000    
  0.176100001        -0.00000000    
  0.176400006        -0.00000000    
  0.176699996        -0.00000000    
  0.177000001        -0.00000000    
  0.177300006        -0.00000000    
  0.177599996         0.00000000    
  0.177900001         0.00000000    
  0.178200006         0.00000000    
  0.178499997         0.00000000    
  0.178800002         0.00000000    
  0.179100007         0.00000000    
  0.179399997         0.00000000    
  0.179700002         0.00000000    
  0.180000007         0.00000000    
  0.180299997         0.00000000    
  0.180600002        -0.00000000    
  0.180899993        -0.00000000    
  0.181199998        -0.00000000    
  0.181500003        -0.00000000    
  0.181799993        -0.00000000    
  0.182099998        -0.00000000    
  0.182400003        -0.00000000    
  0.182699993        -0.00000000    