  -5.99999987E-02     0.00000000    
  -5.97000010E-02     0.00000000    
  -5.93999997E-02     0.00000000    
  -5.90999983E-02     0.00000000    
  -5.88000007E-02     0.00000000    
  -5.84999993E-02     0.00000000    
  -5.82000017E-02     0.00000000    
  -5.79000004E-02     0.00000000    
  -5.75999990E-02     0.00000000    
  -5.73000014E-02     0.00000000    
  -5.70000000E-02     0.00000000    
  -5.66999987E-02     0.00000000    
  -5.64000010E-02     0.00000000    
  -5.60999997E-02     0.00000000    
  -5.57999983E-02     0.00000000    
  -5.55000007E-02     0.00000000    
  -5.51999994E-02     0.00000000    
  -5.49000017E-02     0.00000000    
  -5.46000004E-02     0.00000000    
  -5.42999990E-02     0.00000000    
  -5.40000014E-02     0.00000000    
  -5.37000000E-02     0.00000000    
  -5.33999987E-02     0.00000000    
  -5.31000011E-02     0.00000000    
  -5.27999997E-02     0.00000000    
  -5.24999984E-02     0.00000000    
  -5.22000007E-02     0.00000000    
  -5.18999994E-02     0.00000000    
  -5.16000018E-02     0.00000000    
  -5.13000004E-02     0.00000000    
  -5.09999990E-02     0.00000000    
  -5.07000014E-02     0.00000000    
  -5.04000001E-02     0.00000000    
  -5.00999987E-02     0.00000000    
  -4.98000011E-02     0.00000000    
  -4.94999997E-02     0.00000000    
  -4.91999984E-02     0.00000000    
  -4.89000008E-02     0.00000000    
  -4.85999994E-02     0.00000000    
  -4.83000018E-02     0.00000000    
  -4.80000004E-02     0.00000000    
  -4.76999991E-02     0.00000000    
  -4.74000014E-02     0.00000000    
  -4.71000001E-02     0.00000000    
  -4.67999987E-02     0.00000000    
  -4.65000011E-02     0.00000000    
  -4.61999997E-02     0.00000000    
  -4.58999984E-02     0.00000000    
  -4.56000008E-02     0.00000000    
  -4.52999994E-02     0.00000000    
  -4.50000018E-02     0.00000000    
  -4.47000004E-02     0.00000000    
  -4.43999991E-02     0.00000000    
  -4.41000015E-02     0.00000000    
  -4.38000001E-02     0.00000000    
  -4.34999987E-02     0.00000000    
  -4.32000011E-02     0.00000000    
  -4.28999998E-02     0.00000000    
  -4.25999984E-02     0.00000000    
  -4.23000008E-02     0.00000000    
  -4.19999994E-02     0.00000000    
  -4.17000018E-02     0.00000000    
  -4.14000005E-02     0.00000000    
  -4.10999991E-02     0.00000000    
  -4.08000015E-02    -0.00000000    
  -4.05000001E-02    -0.00000000    
  -4.01999988E-02    -0.00000000    
  -3.99000011E-02    -0.00000000    
  -3.95999998E-02    -0.00000000    
  -3.92999984E-02    -0.00000000    
  -3.90000008E-02    -0.00000000    
  -3.86999995E-02    -0.00000000    
  -3.84000018E-02    -0.00000000    
  -3.81000005E-02    -0.00000000    
  -3.77999991E-02    -0.00000000    
  -3.75000015E-02    -0.00000000    
  -3.72000001E-02    -0.00000000    
  -3.68999988E-02     0.00000000    
  -3.66000012E-02     0.00000000    
  -3.62999998E-02     0.00000000    
  -3.59999985E-02     0.00000000    
  -3.57000008E-02     0.00000000    
  -3.53999995E-02     0.00000000    
  -3.51000018E-02     0.00000000    
  -3.48000005E-02     0.00000000    
  -3.44999991E-02     0.00000000    
  -3.42000015E-02     0.00000000    
  -3.39000002E-02     0.00000000    
  -3.35999988E-02     0.00000000    
  -3.33000012E-02    -0.00000000    
  -3.29999998E-02    -0.00000000    
  -3.26999985E-02    -0.00000000    
  -3.24000008E-02    -0.00000000    
  -3.20999995E-02    -0.00000000    
  -3.18000019E-02    -0.00000000    
  -3.15000005E-02    -0.00000000    
  -3.11999992E-02    -0.00000000    
  -3.08999997E-02    -0.00000000    
  -3.06000002E-02    -0.00000000    
  -3.03000007E-02     0.00000000    
  -2.99999993E-02     0.00000000    
  -2.96999998E-02     0.00000000    
  -2.94000003E-02     0.00000000    
  -2.91000009E-02     0.00000000    
  -2.87999995E-02     0.00000000    
  -2.85000000E-02     0.00000000    
  -2.82000005E-02     0.00000000    
  -2.78999992E-02     0.00000000    
  -2.75999997E-02     0.00000000    
  -2.73000002E-02     0.00000000    
  -2.70000007E-02    -0.00000000    
  -2.66999993E-02    -0.00000000    
  -2.63999999E-02    -0.00000000    
  -2.61000004E-02    -0.00000000    
  -2.58000009E-02    -0.00000000    
  -2.54999995E-02    -0.00000000    
  -2.52000000E-02    -0.00000000    
  -2.49000005E-02    -0.00000000    
  -2.45999992E-02    -0.00000000    
  -2.42999997E-02     0.00000000    
  -2.40000002E-02     0.00000000    
  -2.37000007E-02     0.00000000    
  -2.33999994E-02     0.00000000    
  -2.30999999E-02     0.00000000    
  -2.28000004E-02     0.00000000    
  -2.25000009E-02     0.00000000    
  -2.21999995E-02     0.00000000    
  -2.19000001E-02     0.00000000    
  -2.16000006E-02     0.00000000    
  -2.12999992E-02    -0.00000000    
  -2.09999997E-02    -0.00000000    
  -2.07000002E-02    -0.00000000    
  -2.04000007E-02    -0.00000000    
  -2.00999994E-02    -0.00000000    
  -1.97999999E-02    -0.00000000    
  -1.95000004E-02    -0.00000000    
  -1.92000009E-02    -0.00000000    
  -1.88999996E-02    -0.00000000    
  -1.86000001E-02    -0.00000000    
  -1.83000006E-02     0.00000000    
  -1.79999992E-02     0.00000000    
  -1.76999997E-02     0.00000000    
  -1.74000002E-02     0.00000000    
  -1.71000008E-02     0.00000000    
  -1.67999994E-02     0.00000000    
  -1.64999999E-02     0.00000000    
  -1.62000004E-02     0.00000000    
  -1.59000009E-02     0.00000000    
  -1.55999996E-02    -0.00000000    
  -1.53000001E-02    -0.00000000    
  -1.49999997E-02    -0.00000000    
  -1.47000002E-02    -0.00000000    
  -1.43999998E-02    -0.00000000    
  -1.41000003E-02    -0.00000000    
  -1.37999998E-02    -0.00000000    
  -1.35000004E-02    -0.00000000    
  -1.31999999E-02    -0.00000000    
  -1.29000004E-02     0.00000000    
  -1.26000000E-02     0.00000000    
  -1.22999996E-02     0.00000000    
  -1.20000001E-02     0.00000000    
  -1.16999997E-02     0.00000000    
  -1.14000002E-02     0.00000000    
  -1.10999998E-02     0.00000000    
  -1.08000003E-02     0.00000000    
  -1.04999999E-02     0.00000000    
  -1.02000004E-02     0.00000000    
  -9.89999995E-03    -0.00000000    
  -9.60000046E-03    -0.00000000    
  -9.30000003E-03    -0.00000000    
  -8.99999961E-03    -0.00000000    
  -8.70000012E-03    -0.00000000    
  -8.39999970E-03    -0.00000000    
  -8.10000021E-03    -0.00000000    
  -7.79999979E-03    -0.00000000    
  -7.49999983E-03    -0.00000000    
  -7.19999988E-03     0.00000000    
  -6.89999992E-03     0.00000000    
  -6.59999996E-03     0.00000000    
  -6.30000001E-03     0.00000000    
  -6.00000005E-03     0.00000000    
  -5.70000010E-03     0.00000000    
  -5.40000014E-03     0.00000000    
  -5.10000018E-03     0.00000000    
  -4.80000023E-03     0.00000000    
  -4.49999981E-03     0.00000000    
  -4.19999985E-03    -0.00000000    
  -3.89999989E-03    -0.00000000    
  -3.59999994E-03    -0.00000000    
  -3.29999998E-03    -0.00000000    
  -3.00000003E-03    -1.40129846E-45
  -2.70000007E-03    -1.40129846E-45
  -2.40000011E-03    -1.40129846E-45
  -2.09999993E-03    -1.40129846E-45
  -1.79999997E-03    -0.00000000    
  -1.50000001E-03     0.00000000    
  -1.20000006E-03     1.40129846E-45
  -8.99999985E-04     2.80259693E-45
  -6.00000028E-04     4.20389539E-45
  -3.00000014E-04     5.60519386E-45
   0.00000000         7.00649232E-45
   3.00000014E-04     7.00649232E-45
   6.00000028E-04     7.00649232E-45
   8.99999985E-04     4.20389539E-45
   1.20000006E-03    -1.40129846E-45
   1.50000001E-03    -8.40779079E-45
   1.79999997E-03    -1.68155816E-44
   2.09999993E-03    -2.66246708E-44
   2.40000011E-03    -3.64337601E-44
   2.70000007E-03    -4.48415509E-44
   3.00000003E-03    -4.76441478E-44
   3.29999998E-03    -4.48415509E-44
   3.59999994E-03    -3.08285662E-44
   3.89999989E-03    -7.00649232E-45
   4.19999985E-03     3.08285662E-44
   4.49999981E-03     7.84727140E-44
   4.80000023E-03     1.34524653E-43
   5.10000018E-03     1.90576591E-43
   5.40000014E-03     2.38220739E-43
   5.70000010E-03     2.64845410E-43
   6.00000005E-03     2.56437619E-43
   6.30000001E-03     2.01786979E-43
   6.59999996E-03     9.10844002E-44
   6.89999992E-03    -8.12753109E-44
   7.19999988E-03    -3.05483065E-43
   7.49999983E-03    -5.68927177E-43
   7.79999979E-03    -8.37976482E-43
   8.10000021E-03    -1.07339462E-42
   8.39999970E-03    -1.21912966E-42
   8.70000012E-03    -1.22333356E-42
   8.99999961E-03    -1.02995437E-42
   9.30000003E-03    -6.03959638E-43
   9.60000046E-03     6.72623263E-44
   9.89999995E-03     9.58488150E-43
   1.02000004E-02     1.99685031E-42
   1.04999999E-02     3.06604104E-42
   1.08000003E-02     3.99930582E-42
   1.10999998E-02     4.60326546E-42
   1.14000002E-02     4.67473168E-42
   1.16999997E-02     4.03573958E-42
   1.20000001E-02     2.57278398E-42
   1.22999996E-02     2.76055797E-43
   1.26000000E-02    -2.72832811E-42
   1.29000004E-02    -6.15029896E-42
   1.31999999E-02    -9.53723735E-42
   1.35000004E-02    -1.23034005E-41
   1.37999998E-02    -1.37887769E-41
   1.41000003E-02    -1.33557757E-41
   1.43999998E-02    -1.05097385E-41
   1.47000002E-02    -5.03906928E-42
   1.49999997E-02     2.84183329E-42
   1.53000001E-02     1.23944849E-41
   1.55999996E-02     2.22960599E-41
   1.59000009E-02     3.06772260E-41
   1.62000004E-02     3.52776888E-41
   1.64999999E-02     3.37138398E-41
   1.67999994E-02     2.39033492E-41
   1.71000008E-02     4.56963429E-42
   1.74000002E-02    -2.41625894E-41
   1.76999997E-02    -6.02137950E-41
   1.79999992E-02    -9.91026300E-41
   1.83000006E-02    -1.33745531E-40
   1.86000001E-02    -1.54666917E-40
   1.88999996E-02    -1.50706847E-40
   1.92000009E-02    -1.10376076E-40
   1.95000004E-02    -2.38655141E-41
   1.97999999E-02     1.14322133E-40
   2.00999994E-02     3.02339953E-40
   2.04000007E-02     5.27859322E-40
   2.07000002E-02     7.65407438E-40
   2.09999997E-02     9.74824487E-40
   2.12999992E-02     1.10165881E-39
   2.16000006E-02     1.08034506E-39
   2.19000001E-02     8.40889781E-40
   2.21999995E-02     3.19508662E-40
   2.25000009E-02    -5.26829368E-40
   2.28000004E-02    -1.70277382E-39
   2.30999999E-02    -3.15560223E-39
   2.33999994E-02    -4.75767453E-39
   2.37000007E-02    -6.29418709E-39
   2.40000002E-02    -7.46087456E-39
   2.42999997E-02    -7.87667204E-39
   2.45999992E-02    -7.11587768E-39
   2.49000005E-02    -4.76288316E-39
   2.52000000E-02    -4.89833687E-40
   2.54999995E-02     5.84645541E-39
   2.58000009E-02     1.40970626E-38
   2.61000004E-02     2.37174950E-38
   2.63999999E-02     3.36882240E-38
   2.66999993E-02     4.24836027E-38
   2.70000007E-02     4.81152699E-38
   2.73000002E-02     4.82738745E-38
   2.75999997E-02     4.05855748E-38
   2.78999992E-02     2.29863367E-38
   2.82000005E-02    -5.80241120E-39
   2.85000000E-02    -4.57373309E-38
   2.87999995E-02    -9.49233638E-38
   2.91000009E-02    -1.49183277E-37
   2.94000003E-02    -2.01838457E-37
   2.96999998E-02    -2.43819834E-37
   2.99999993E-02    -2.64216955E-37
   3.03000007E-02    -2.51340278E-37
   3.06000002E-02    -1.94312632E-37
   3.08999997E-02    -8.51245881E-38
   3.11999992E-02     7.90137946E-38
   3.15000005E-02     2.93300468E-37
   3.18000019E-02     5.43325566E-37
   3.20999995E-02     8.03863810E-37
   3.24000008E-02     1.03895255E-36
   3.26999985E-02     1.20368767E-36
   3.29999998E-02     1.24804278E-36
   3.33000012E-02     1.12279360E-36
   3.35999988E-02     7.87324721E-37
   3.39000002E-02     2.18726615E-37
   3.42000015E-02    -5.78805008E-37
   3.44999991E-02    -1.56561441E-36
   3.48000005E-02    -2.66088705E-36
   3.51000018E-02    -3.74131282E-36
   3.53999995E-02    -4.64567148E-36
   3.57000008E-02    -5.18648032E-36
   3.59999985E-02    -5.16911946E-36
   3.62999998E-02    -4.41785344E-36
   3.66000012E-02    -2.80697364E-36
   3.68999988E-02    -2.94018403E-37
   3.72000001E-02     3.04914654E-36
   3.75000015E-02     7.01247957E-36
   3.77999991E-02     1.12366053E-35
   3.81000005E-02     1.52194993E-35
   3.84000018E-02     1.83450056E-35
   3.86999995E-02     1.99351817E-35
   3.90000008E-02     1.93256552E-35
   3.92999984E-02     1.59597551E-35
   3.95999998E-02     9.49353746E-36
   3.99000011E-02    -9.97087981E-38
   4.01999988E-02    -1.24396446E-35
   4.05000001E-02    -2.66795174E-35
   4.08000015E-02    -4.14927982E-35
   4.10999991E-02    -5.51191367E-35
   4.14000005E-02    -6.54783988E-35
   4.17000018E-02    -7.03548120E-35
   4.19999994E-02    -6.76449130E-35
   4.23000008E-02    -5.56532233E-35
   4.25999984E-02    -3.34101008E-35
   4.28999998E-02    -9.77461865E-37
   4.32000011E-02     4.02982422E-35
   4.34999987E-02     8.76292181E-35
   4.38000001E-02     1.36767413E-34
   4.41000015E-02     1.82158232E-34
   4.43999991E-02     2.17289029E-34
   4.47000004E-02     2.35236876E-34
   4.50000018E-02     2.29397700E-34
   4.52999994E-02     1.94354537E-34
   4.56000008E-02     1.26816038E-34
   4.58999984E-02     2.65338290E-35
   4.61999997E-02    -1.02912946E-34
   4.65000011E-02    -2.53587491E-34
   4.67999987E-02    -4.13042450E-34
   4.71000001E-02    -5.64653165E-34
   4.74000014E-02    -6.88518449E-34
   4.76999991E-02    -7.62965261E-34
   4.80000004E-02    -7.66635880E-34
   4.83000018E-02    -6.81061866E-34
   4.85999994E-02    -4.93552425E-34
   4.89000008E-02    -2.00141872E-34
   4.91999984E-02     1.91731497E-34
   4.94999997E-02     6.61195920E-34
   4.98000011E-02     1.17297273E-33
   5.00999987E-02     1.67784719E-33
   5.04000001E-02     2.11490260E-33
   5.07000014E-02     2.41571362E-33
   5.09999990E-02     2.51050696E-33
   5.13000004E-02     2.33606470E-33
   5.16000018E-02     1.84487502E-33
   5.18999994E-02     1.01474835E-33
   5.22000007E-02    -1.42140570E-34
   5.24999984E-02    -1.57202992E-33
   5.27999997E-02    -3.17550909E-33
   5.31000011E-02    -4.80791553E-33
   5.33999987E-02    -6.28526691E-33
   5.37000000E-02    -7.39639707E-33
   5.40000014E-02    -7.92135962E-33
   5.42999990E-02    -7.65540182E-33
   5.46000004E-02    -6.43695858E-33
   5.49000017E-02    -4.17723893E-33
   5.51999994E-02    -8.88198664E-34
   5.55000007E-02     3.29486989E-33
   5.57999983E-02     8.10011117E-33
   5.60999997E-02     1.31190121E-32
   5.64000010E-02     1.78224707E-32
   5.66999987E-02     2.15947599E-32
   5.70000000E-02     2.37853964E-32
   5.73000014E-02     2.37767154E-32
   5.75999990E-02     2.10626797E-32
   5.79000004E-02     1.53321065E-32
   5.82000017E-02     6.54761888E-33
   5.84999993E-02    -4.98975679E-33
   5.88000007E-02    -1.86007199E-32
   5.90999983E-02    -3.32222592E-32
   5.93999997E-02    -4.74443126E-32
   5.97000010E-02    -5.95929674E-32
   5.99999987E-02    -6.78602838E-32
   6.03000000E-02    -7.04757646E-32
   6.06000014E-02    -6.59088398E-32
   6.08999990E-02    -5.30865474E-32
   6.12000003E-02    -3.16059222E-32
   6.15000017E-02    -1.91736518E-33
   6.17999993E-02     3.45460569E-32
   6.21000007E-02     7.53174260E-32
   6.23999983E-02     1.16943397E-31
   6.27000034E-02     1.55144472E-31
   6.30000010E-02     1.85093764E-31
   6.32999986E-02     2.01808941E-31
   6.36000037E-02     2.00640194E-31
   6.39000013E-02     1.77823872E-31
   6.41999990E-02     1.31059944E-31
   6.44999966E-02     6.00598150E-32
   6.48000017E-02    -3.29956327E-32
   6.50999993E-02    -1.43152537E-31
   6.53999969E-02    -2.62597562E-31
   6.57000020E-02    -3.80843666E-31
   6.59999996E-02    -4.85228175E-31
   6.62999973E-02    -5.61741902E-31
   6.66000023E-02    -5.96179137E-31
   6.69000000E-02    -5.75564023E-31
   6.71999976E-02    -4.89770474E-31
   6.75000027E-02    -3.33214069E-31
   6.78000003E-02    -1.06458046E-31
   6.80999979E-02     1.82454497E-31
   6.84000030E-02     5.17144681E-31
   6.87000006E-02     8.72721048E-31
   6.89999983E-02     1.21646080E-30
   6.93000033E-02     1.50947863E-30
   6.96000010E-02     1.70943793E-30
   6.98999986E-02     1.77425901E-30
   7.02000037E-02     1.66665576E-30
   7.05000013E-02     1.35920493E-30
   7.07999989E-02     8.39517377E-31
   7.10999966E-02     1.14972317E-31
   7.14000016E-02    -7.83607292E-31
   7.16999993E-02    -1.79998372E-30
   7.19999969E-02    -2.85284222E-30
   7.23000020E-02    -3.83892494E-30
   7.25999996E-02    -4.63924061E-30
   7.28999972E-02    -5.12835422E-30
   7.32000023E-02    -5.18641725E-30
   7.34999999E-02    -4.71321062E-30
   7.37999976E-02    -3.64311165E-30
   7.41000026E-02    -1.95953554E-30
   7.44000003E-02     2.92823213E-31
   7.46999979E-02     2.99974385E-30
   7.50000030E-02     5.97494901E-30
   7.53000006E-02     8.96473821E-30
   7.55999982E-02     1.16607475E-29
   7.59000033E-02     1.37211088E-29
   7.62000009E-02     1.47994235E-29
   7.64999986E-02     1.45800510E-29
   7.68000036E-02     1.28171842E-29
   7.71000013E-02     9.37439103E-30
   7.73999989E-02     4.26054598E-30
   7.76999965E-02    -2.34224133E-30
   7.80000016E-02    -1.00631299E-29
   7.82999992E-02    -1.83433934E-29
   7.85999969E-02    -2.64565990E-29
   7.89000019E-02    -3.35496455E-29
   7.91999996E-02    -3.87044060E-29
   7.94999972E-02    -4.10175201E-29
   7.98000023E-02    -3.96937592E-29
   8.00999999E-02    -3.41461180E-29
   8.03999975E-02    -2.40939509E-29
   8.07000026E-02    -9.64918813E-30
   8.10000002E-02     8.62005994E-30
   8.12999979E-02     2.96587975E-29
   8.16000029E-02     5.19363241E-29
   8.19000006E-02     7.35059029E-29
   8.21999982E-02     9.21159653E-29
   8.25000033E-02     1.05371672E-28
   8.28000009E-02     1.10940522E-28
   8.30999985E-02     1.06790492E-28
   8.34000036E-02     9.14437496E-29
   8.37000012E-02     6.42248585E-29
   8.39999989E-02     2.54784101E-29
   8.42999965E-02    -2.32703073E-29
   8.46000016E-02    -7.92377834E-29
   8.48999992E-02    -1.38411000E-28
   8.51999968E-02    -1.95699917E-28
   8.55000019E-02    -2.45222521E-28
   8.57999995E-02    -2.80720564E-28
   8.60999972E-02    -2.96090736E-28
   8.64000022E-02    -2.86002523E-28
   8.66999999E-02    -2.46559261E-28
   8.69999975E-02    -1.75947098E-28
   8.73000026E-02    -7.50061121E-29
   8.76000002E-02     5.23465291E-29
   8.78999978E-02     1.98911224E-28
   8.82000029E-02     3.54280206E-28
   8.85000005E-02     5.05237484E-28
   8.87999982E-02     6.36507328E-28
   8.91000032E-02     7.31844616E-28
   8.94000009E-02     7.75423596E-28
   8.96999985E-02     7.53445894E-28
   9.00000036E-02     6.55850068E-28
   9.03000012E-02     4.77973490E-28
   9.05999988E-02     2.21994409E-28
   9.08999965E-02    -1.02028269E-28
   9.12000015E-02    -4.75692948E-28
   9.14999992E-02    -8.72521280E-28
   9.17999968E-02    -1.25905696E-27
   9.21000019E-02    -1.59683715E-27
   9.23999995E-02    -1.84519881E-27
   9.26999971E-02    -1.96479078E-27
   9.30000022E-02    -1.92157002E-27
   9.32999998E-02    -1.69097939E-27
   9.35999975E-02    -1.26192563E-27
   9.39000025E-02    -6.40143388E-28
   9.42000002E-02     1.49487240E-28
   9.44999978E-02     1.06206428E-27
   9.48000029E-02     2.03355149E-27
   9.51000005E-02     2.98362948E-27
   9.53999981E-02     3.82055659E-27
   9.57000032E-02     4.44789438E-27
   9.60000008E-02     4.77275446E-27
   9.62999985E-02     4.71502702E-27
   9.66000035E-02     4.21687138E-27
   9.69000012E-02     3.25162110E-27
   9.71999988E-02     1.83118286E-27
   9.74999964E-02     1.10113322E-29
   9.78000015E-02    -2.10815778E-27
   9.80999991E-02    -4.38246322E-27
   9.83999968E-02    -6.63133502E-27
   9.87000018E-02    -8.64821277E-27
   9.89999995E-02    -1.02152202E-26
   9.92999971E-02    -1.11210383E-26
   9.96000022E-02    -1.11808384E-26
   9.98999998E-02    -1.02567864E-26
  0.100199997        -8.27737419E-27
  0.100500003        -5.25370000E-27
  0.100800000        -1.29084010E-27
  0.101099998         3.40739339E-27
  0.101400003         8.54164490E-27
  0.101700000         1.37290086E-26
  0.101999998         1.85240379E-26
  0.102300003         2.24482142E-26
  0.102600001         2.50265645E-26
  0.102899998         2.58293059E-26
  0.103200004         2.45156738E-26
  0.103500001         2.08765136E-26
  0.103799999         1.48718600E-26
  0.104099996         6.65956761E-27
  0.104400001        -3.38870686E-27
  0.104699999        -1.46873975E-26
  0.104999997        -2.64551222E-26
  0.105300002        -3.77521496E-26
  0.105599999        -4.75369615E-26
  0.105899997        -5.47399765E-26
  0.106200002        -5.83507901E-26
  0.106500000        -5.75135806E-26
  0.106799997        -5.16237849E-26
  0.107100002        -4.04180804E-26
  0.107400000        -2.40488777E-26
  0.107699998        -3.13461141E-27
  0.108000003         2.12222519E-26
  0.108300000         4.74560817E-26
  0.108599998         7.36020721E-26
  0.108900003         9.74045571E-26
  0.109200001         1.16467227E-25
  0.109499998         1.28438659E-25
  0.109800003         1.31222636E-25
  0.110100001         1.23198589E-25
  0.110399999         1.03434530E-25
  0.110699996         7.18724576E-26
  0.111000001         2.94658191E-26
  0.111299999        -2.17507949E-26
  0.111599997        -7.86761981E-26
  0.111900002        -1.37253083E-25
  0.112199999        -1.92679412E-25
  0.112499997        -2.39717129E-25
  0.112800002        -2.73085674E-25
  0.113100000        -2.87917788E-25
  0.113399997        -2.80246362E-25
  0.113700002        -2.47483465E-25
  0.114000000        -1.88847495E-25
  0.114299998        -1.05692755E-25
  0.114600003        -1.69751639E-27
  0.114900000         1.17126431E-25
  0.115199998         2.42629628E-25
  0.115500003         3.64937581E-25
  0.115800001         4.73074314E-25
  0.116099998         5.55770356E-25
  0.116400003         6.02408897E-25
  0.116700001         6.04044502E-25
  0.116999999         5.54413466E-25
  0.117299996         4.50844657E-25
  0.117600001         2.94976268E-25
  0.117899999         9.31881449E-26
  0.118199997        -1.43325056E-25
  0.118500002        -3.98895208E-25
  0.118799999        -6.54159109E-25
  0.119099997        -8.87262034E-25
  0.119400002        -1.07543445E-24
  0.119700000        -1.19684981E-24
  0.119999997        -1.23263520E-24
  0.120300002        -1.16887670E-24
  0.120600000        -9.98443104E-25
  0.120899998        -7.22443994E-25
  0.121200003        -3.51152138E-25
  0.121500000         9.57584633E-26
  0.121799998         5.89758921E-25
  0.122100003         1.09484437E-24
  0.122400001         1.56972247E-24
  0.122699998         1.97071752E-24
  0.123000003         2.25521981E-24
  0.123300001         2.38544813E-24
  0.123599999         2.33222980E-24
  0.123899996         2.07848204E-24
  0.124200001         1.62205333E-24
  0.124499999         9.77613626E-25
  0.124799997         1.77322706E-25
  0.125100002        -7.29915443E-25
  0.125400007        -1.68070346E-24
  0.125699997        -2.60087914E-24
  0.126000002        -3.41056479E-24
  0.126300007        -4.03024777E-24
  0.126599997        -4.38748895E-24
  0.126900002        -4.42375525E-24
  0.127200007        -4.10081295E-24
  0.127499998        -3.40609155E-24
  0.127800003        -2.35646696E-24
  0.128099993        -9.99973100E-25
  0.128399998         5.84906539E-25
  0.128700003         2.29256094E-24
  0.128999993         3.99617055E-24
  0.129299998         5.55599232E-24
  0.129600003         6.82955855E-24
  0.129899994         7.68312814E-24
  0.130199999         8.00356896E-24
  0.130500004         7.70972695E-24
  0.130799994         6.76229238E-24
  0.131099999         5.17120293E-24
  0.131400004         2.99973668E-24
  0.131699994         3.64643632E-25
  0.131999999        -2.56808087E-24
  0.132300004        -5.59184605E-24
  0.132599995        -8.47225095E-24
  0.132900000        -1.09633593E-23
  0.133200005        -1.28264618E-23
  0.133499995        -1.38500451E-23
  0.133800000        -1.38694511E-23
  0.134100005        -1.27846301E-23
  0.134399995        -1.05743467E-23
  0.134700000        -7.30540576E-24
  0.135000005        -3.13566471E-24
  0.135299996         1.68996271E-24
  0.135600001         6.85083887E-24
  0.135900006         1.19690434E-23
  0.136199996         1.66340930E-23
  0.136500001         2.04325561E-23
  0.136800006         2.29806494E-23
  0.137099996         2.39574911E-23
  0.137400001         2.31364494E-23
  0.137700006         2.04119148E-23
  0.137999997         1.58189567E-23
  0.138300002         9.54367473E-24
  0.138600007         1.92255263E-24
  0.138899997        -6.57013178E-24
  0.139200002        -1.53469434E-23
  0.139500007        -2.37431387E-23
  0.139799997        -3.10619409E-23
  0.140100002        -3.66265278E-23
  0.140400007        -3.98352732E-23
  0.140699998        -4.02161573E-23
  0.141000003        -3.74760332E-23
  0.141299993        -3.15403282E-23
  0.141599998        -2.25791965E-23
  0.141900003        -1.10168062E-23
  0.142199993         2.47857276E-24
  0.142499998         1.70246691E-23
  0.142800003         3.15749971E-23
  0.143099993         4.49862352E-23
  0.143399999         5.60995340E-23
  0.143700004         6.38305413E-23
  0.143999994         6.72619222E-23
  0.144299999         6.57311849E-23
  0.144600004         5.89064400E-23
  0.144899994         4.68429487E-23
  0.145199999         3.00141506E-23
  0.145500004         9.31239728E-24
  0.145799994        -1.39835393E-23
  0.146100000        -3.82746287E-23
  0.146400005        -6.17392016E-23
  0.146699995        -8.24571881E-23
  0.147000000        -9.85533711E-23
  0.147300005        -1.08350020E-22
  0.147599995        -1.10517507E-22
  0.147900000        -1.04210602E-22
  0.148200005        -8.91783651E-23
  0.148499995        -6.58363117E-23
  0.148800001        -3.52918983E-23
  0.149100006         6.82994194E-25
  0.149399996         3.97348575E-23
  0.149700001         7.90648843E-23
  0.150000006         1.15612463E-22
  0.150299996         1.46275045E-22
  0.150600001         1.68150006E-22
  0.150900006         1.78780683E-22
  0.151199996         1.76387405E-22
  0.151500002         1.60063626E-22
  0.151800007         1.29918588E-22
  0.152099997         8.71508979E-23
  0.152400002         3.40414780E-23
  0.152700007        -2.61396697E-23
  0.152999997        -8.93122632E-23
  0.153300002        -1.50842171E-22
  0.153600007        -2.05860927E-22
  0.153899997        -2.49627347E-22
  0.154200003        -2.77905524E-22
  0.154499993        -2.87330329E-22
  0.154799998        -2.75730338E-22
  0.155100003        -2.42379545E-22
  0.155399993        -1.88153474E-22
  0.155699998        -1.15570458E-22
  0.156000003        -2.87082482E-23
  0.156299993         6.70057885E-23
  0.156599998         1.65121487E-22
  0.156900004         2.58590927E-22
  0.157199994         3.40263552E-22
  0.157499999         4.03416222E-22
  0.157800004         4.42278338E-22
  0.158099994         4.52510507E-22
  0.158399999         4.31596580E-22
  0.158700004         3.79115520E-22
  0.158999994         2.96865171E-22
  0.159299999         1.88824119E-22
  0.159600005         6.09478669E-23
  0.159899995        -7.91895811E-23
  0.160200000        -2.22884962E-22
  0.160500005        -3.60890485E-22
  0.160799995        -4.84050050E-22
  0.161100000        -5.83936652E-22
  0.161400005        -6.53441382E-22
  0.161699995        -6.87264708E-22
  0.162000000        -6.82271837E-22
  0.162300006        -6.37682339E-22
  0.162599996        -5.55080247E-22
  0.162900001        -4.38246842E-22
  0.163200006        -2.92833448E-22
  0.163499996        -1.25908574E-22
  0.163800001         5.45763446E-23
  0.164100006         2.40348449E-22
  0.164399996         4.23346231E-22
  0.164700001         5.96170181E-22
  0.165000007         7.52406494E-22
  0.165299997         8.86793253E-22
  0.165600002         9.95215205E-22
  0.165900007         1.07453690E-21
  0.166199997         1.12230002E-21
  0.166500002         1.13633593E-21
  0.166800007         1.11435567E-21
  0.167099997         1.05359243E-21
  0.167400002         9.50571080E-22
  0.167699993         8.01077571E-22
  0.167999998         6.00380452E-22
  0.168300003         3.43739690E-22
  0.168599993         2.72033950E-23
  0.168899998        -3.51338604E-22
  0.169200003        -7.90913206E-22
  0.169499993        -1.28613711E-21
  0.169799998        -1.82593759E-21
  0.170100003        -2.39247412E-21
  0.170399994        -2.96042529E-21
  0.170699999        -3.49679901E-21
  0.171000004        -3.96140552E-21
  0.171299994        -4.30809759E-21
  0.171599999        -4.48683323E-21
  0.171900004        -4.44655341E-21
  0.172199994        -4.13879900E-21
  0.172499999        -3.52191614E-21
  0.172800004        -2.56563133E-21
  0.173099995        -1.25570520E-21
  0.173400000         4.01666364E-22
  0.173700005         2.37607712E-21
  0.173999995         4.61014049E-21
  0.174300000         7.01808628E-21
  0.174600005         9.48604749E-21
  0.174899995         1.18742851E-20
  0.175200000         1.40215046E-20
  0.175500005         1.57513009E-20
  0.175799996         1.68806399E-20
  0.176100001         1.72301318E-20
  0.176400006         1.66357266E-20
  0.176699996         1.49613062E-20
  0.177000001         1.21115422E-20
  0.177300006         8.04429753E-21
  0.177599996         2.78176539E-21
  0.177900001        -3.58046784E-21
  0.178200006        -1.08672355E-20
  0.178499997        -1.88212331E-20
  0.178800002        -2.71047215E-20
  0.179100007        -3.53059749E-20
  0.179399997        -4.29507782E-20
  0.179700002        -4.95190510E-20
  0.180000007        -5.44663601E-20
  0.180299997        -5.72499457E-20
  0.180600002        -5.73584485E-20
  0.180899993        -5.43442799E-20
  0.181199998        -4.78574649E-20
  0.181500003        -3.76792757E-20
  0.181799993        -2.37539728E-20
  0.182099998        -6.21683139E-21
  0.182400003         1.45836110E-20
  0.182699993         3.80709360E-20