  -5.99999987E-02     0.00000000    
  -5.97000010E-02     0.00000000    
  -5.93999997E-02     0.00000000    
  -5.90999983E-02     0.00000000    
  -5.88000007E-02     0.00000000    
  -5.84999993E-02     0.00000000    
  -5.82000017E-02     0.00000000    
  -5.79000004E-02     0.00000000    
  -5.75999990E-02     0.00000000    
  -5.73000014E-02     0.00000000    
  -5.70000000E-02     0.00000000    
  -5.66999987E-02     0.00000000    
  -5.64000010E-02     0.00000000    
  -5.60999997E-02     0.00000000    
  -5.57999983E-02     0.00000000    
  -5.55000007E-02     0.00000000    
  -5.51999994E-02     0.00000000    
  -5.49000017E-02     0.00000000    
  -5.46000004E-02     0.00000000    
  -5.42999990E-02     0.00000000    
  -5.40000014E-02     0.00000000    
  -5.37000000E-02     0.00000000    
  -5.33999987E-02     0.00000000    
  -5.31000011E-02     0.00000000    
  -5.27999997E-02     0.00000000    
  -5.24999984E-02     0.00000000    
  -5.22000007E-02     0.00000000    
  -5.18999994E-02     0.00000000    
  -5.16000018E-02     0.00000000    
  -5.13000004E-02     0.00000000    
  -5.09999990E-02    -0.00000000    
  -5.07000014E-02    -0.00000000    
  -5.04000001E-02    -0.00000000    
  -5.00999987E-02    -0.00000000    
  -4.98000011E-02    -0.00000000    
  -4.94999997E-02    -0.00000000    
  -4.91999984E-02    -0.00000000    
  -4.89000008E-02    -0.00000000    
  -4.85999994E-02    -0.00000000    
  -4.83000018E-02    -0.00000000    
  -4.80000004E-02    -0.00000000    
  -4.76999991E-02    -0.00000000    
  -4.74000014E-02    -0.00000000    
  -4.71000001E-02    -0.00000000    
  -4.67999987E-02    -0.00000000    
  -4.65000011E-02    -0.00000000    
  -4.61999997E-02    -0.00000000    
  -4.58999984E-02    -0.00000000    
  -4.56000008E-02    -0.00000000    
  -4.52999994E-02    -0.00000000    
  -4.50000018E-02    -0.00000000    
  -4.47000004E-02    -0.00000000    
  -4.43999991E-02    -0.00000000    
  -4.41000015E-02    -0.00000000    
  -4.38000001E-02    -0.00000000    
  -4.34999987E-02    -0.00000000    
  -4.32000011E-02    -0.00000000    
  -4.28999998E-02    -0.00000000    
  -4.25999984E-02    -0.00000000    
  -4.23000008E-02    -0.00000000    
  -4.19999994E-02    -0.00000000    
  -4.17000018E-02    -0.00000000    
  -4.14000005E-02    -0.00000000    
  -4.10999991E-02    -0.00000000    
  -4.08000015E-02    -0.00000000    
  -4.05000001E-02    -0.00000000    
  -4.01999988E-02     0.00000000    
  -3.99000011E-02     0.00000000    
  -3.95999998E-02     0.00000000    
  -3.92999984E-02     0.00000000    
  -3.90000008E-02     0.00000000    
  -3.86999995E-02     0.00000000    
  -3.84000018E-02     0.00000000    
  -3.81000005E-02     0.00000000    
  -3.77999991E-02     0.00000000    
  -3.75000015E-02     0.00000000    
  -3.72000001E-02     0.00000000    
  -3.68999988E-02     0.00000000    
  -3.66000012E-02     0.00000000    
  -3.62999998E-02     0.00000000    
  -3.59999985E-02    -0.00000000    
  -3.57000008E-02    -0.00000000    
  -3.53999995E-02    -0.00000000    
  -3.51000018E-02    -0.00000000    
  -3.48000005E-02    -0.00000000    
  -3.44999991E-02    -0.00000000    
  -3.42000015E-02    -0.00000000    
  -3.39000002E-02    -0.00000000    
  -3.35999988E-02    -0.00000000    
  -3.33000012E-02    -0.00000000    
  -3.29999998E-02    -0.00000000    
  -3.26999985E-02     0.00000000    
  -3.24000008E-02     0.00000000    
  -3.20999995E-02     0.00000000    
  -3.18000019E-02     0.00000000    
  -3.15000005E-02     0.00000000    
  -3.11999992E-02     0.00000000    
  -3.08999997E-02     0.00000000    
  -3.06000002E-02     0.00000000    
  -3.03000007E-02     0.00000000    
  -2.99999993E-02     0.00000000    
  -2.96999998E-02     0.00000000    
  -2.94000003E-02    -0.00000000    
  -2.91000009E-02    -0.00000000    
  -2.87999995E-02    -0.00000000    
  -2.85000000E-02    -0.00000000    
  -2.82000005E-02    -0.00000000    
  -2.78999992E-02    -0.00000000    
  -2.75999997E-02    -0.00000000    
  -2.73000002E-02    -0.00000000    
  -2.70000007E-02    -0.00000000    
  -2.66999993E-02    -0.00000000    
  -2.63999999E-02     0.00000000    
  -2.61000004E-02     0.00000000    
  -2.58000009E-02     0.00000000    
  -2.54999995E-02     0.00000000    
  -2.52000000E-02     0.00000000    
  -2.49000005E-02     0.00000000    
  -2.45999992E-02     0.00000000    
  -2.42999997E-02     0.00000000    
  -2.40000002E-02     0.00000000    
  -2.37000007E-02     0.00000000    
  -2.33999994E-02    -0.00000000    
  -2.30999999E-02    -0.00000000    
  -2.28000004E-02    -0.00000000    
  -2.25000009E-02    -0.00000000    
  -2.21999995E-02    -0.00000000    
  -2.19000001E-02    -0.00000000    
  -2.16000006E-02    -0.00000000    
  -2.12999992E-02    -0.00000000    
  -2.09999997E-02    -0.00000000    
  -2.07000002E-02    -0.00000000    
  -2.04000007E-02     0.00000000    
  -2.00999994E-02     0.00000000    
  -1.97999999E-02     0.00000000    
  -1.95000004E-02     0.00000000    
  -1.92000009E-02     0.00000000    
  -1.88999996E-02     0.00000000    
  -1.86000001E-02     0.00000000    
  -1.83000006E-02     0.00000000    
  -1.79999992E-02     0.00000000    
  -1.76999997E-02    -0.00000000    
  -1.74000002E-02    -0.00000000    
  -1.71000008E-02    -0.00000000    
  -1.67999994E-02    -0.00000000    
  -1.64999999E-02    -0.00000000    
  -1.62000004E-02    -0.00000000    
  -1.59000009E-02    -0.00000000    
  -1.55999996E-02    -0.00000000    
  -1.53000001E-02    -0.00000000    
  -1.49999997E-02    -0.00000000    
  -1.47000002E-02     0.00000000    
  -1.43999998E-02     0.00000000    
  -1.41000003E-02     0.00000000    
  -1.37999998E-02     0.00000000    
  -1.35000004E-02     0.00000000    
  -1.31999999E-02     0.00000000    
  -1.29000004E-02     0.00000000    
  -1.26000000E-02     0.00000000    
  -1.22999996E-02     0.00000000    
  -1.20000001E-02     0.00000000    
  -1.16999997E-02    -0.00000000    
  -1.14000002E-02    -0.00000000    
  -1.10999998E-02    -0.00000000    
  -1.08000003E-02    -0.00000000    
  -1.04999999E-02    -0.00000000    
  -1.02000004E-02    -0.00000000    
  -9.89999995E-03    -0.00000000    
  -9.60000046E-03    -0.00000000    
  -9.30000003E-03    -0.00000000    
  -8.99999961E-03     0.00000000    
  -8.70000012E-03     0.00000000    
  -8.39999970E-03     0.00000000    
  -8.10000021E-03     0.00000000    
  -7.79999979E-03     0.00000000    
  -7.49999983E-03     0.00000000    
  -7.19999988E-03     0.00000000    
  -6.89999992E-03     0.00000000    
  -6.59999996E-03     0.00000000    
  -6.30000001E-03     0.00000000    
  -6.00000005E-03    -0.00000000    
  -5.70000010E-03    -0.00000000    
  -5.40000014E-03    -0.00000000    
  -5.10000018E-03    -0.00000000    
  -4.80000023E-03    -0.00000000    
  -4.49999981E-03    -0.00000000    
  -4.19999985E-03    -0.00000000    
  -3.89999989E-03    -0.00000000    
  -3.59999994E-03    -0.00000000    
  -3.29999998E-03    -0.00000000    
  -3.00000003E-03     0.00000000    
  -2.70000007E-03     1.40129846E-45
  -2.40000011E-03     1.40129846E-45
  -2.09999993E-03     2.80259693E-45
  -1.79999997E-03     4.20389539E-45
  -1.50000001E-03     4.20389539E-45
  -1.20000006E-03     4.20389539E-45
  -8.99999985E-04     4.20389539E-45
  -6.00000028E-04     2.80259693E-45
  -3.00000014E-04     1.40129846E-45
   0.00000000        -2.80259693E-45
   3.00000014E-04    -9.80908925E-45
   6.00000028E-04    -1.68155816E-44
   8.99999985E-04    -2.52233724E-44
   1.20000006E-03    -3.36311631E-44
   1.50000001E-03    -3.92363570E-44
   1.79999997E-03    -4.20389539E-44
   2.09999993E-03    -3.92363570E-44
   2.40000011E-03    -2.80259693E-44
   2.70000007E-03    -5.60519386E-45
   3.00000003E-03     2.94272678E-44
   3.29999998E-03     7.84727140E-44
   3.59999994E-03     1.38728548E-43
   3.89999989E-03     2.04589576E-43
   4.19999985E-03     2.70450604E-43
   4.49999981E-03     3.23699945E-43
   4.80000023E-03     3.47522019E-43
   5.10000018E-03     3.23699945E-43
   5.40000014E-03     2.32615545E-43
   5.70000010E-03     5.60519386E-44
   6.00000005E-03    -2.17201262E-43
   6.30000001E-03    -5.91347952E-43
   6.59999996E-03    -1.05097385E-42
   6.89999992E-03    -1.56104649E-42
   7.19999988E-03    -2.06131004E-42
   7.49999983E-03    -2.46068010E-42
   7.79999979E-03    -2.64425020E-42
   8.10000021E-03    -2.47609439E-42
   8.39999970E-03    -1.81608281E-42
   8.70000012E-03    -5.33894715E-43
   8.99999961E-03     1.45314651E-42
   9.30000003E-03     4.15204735E-42
   9.60000046E-03     7.45210523E-42
   9.89999995E-03     1.10912773E-41
   1.02000004E-02     1.46295560E-41
   1.04999999E-02     1.74321529E-41
   1.08000003E-02     1.86947228E-41
   1.10999998E-02     1.74910074E-41
   1.14000002E-02     1.28793342E-41
   1.16999997E-02     4.04414737E-42
   1.20000001E-02    -9.50360619E-42
   1.22999996E-02    -2.77008680E-41
   1.26000000E-02    -4.96914448E-41
   1.29000004E-02    -7.36088070E-41
   1.31999999E-02    -9.64401629E-41
   1.35000004E-02    -1.14004038E-40
   1.37999998E-02    -1.21131042E-40
   1.41000003E-02    -1.12075851E-40
   1.43999998E-02    -8.11982395E-41
   1.47000002E-02    -2.39439869E-41
   1.49999997E-02     6.19570103E-41
   1.53000001E-02     1.75139887E-40
   1.55999996E-02     3.09287591E-40
   1.59000009E-02     4.52051878E-40
   1.62000004E-02     5.84523628E-40
   1.64999999E-02     6.81529916E-40
   1.67999994E-02     7.13073144E-40
   1.71000008E-02     6.47130841E-40
   1.74000002E-02     4.53924013E-40
   1.76999997E-02     1.11529345E-40
   1.79999992E-02    -3.87501064E-40
   1.83000006E-02    -1.02920328E-39
   1.86000001E-02    -1.77191528E-39
   1.88999996E-02    -2.54189936E-39
   1.92000009E-02    -3.23230090E-39
   1.95000004E-02    -3.70687725E-39
   1.97999999E-02    -3.80972275E-39
   2.00999994E-02    -3.38173116E-39
   2.04000007E-02    -2.28372133E-39
   2.07000002E-02    -4.25130132E-40
   2.09999997E-02     2.20412618E-39
   2.12999992E-02     5.50237498E-39
   2.16000006E-02     9.23047209E-39
   2.19000001E-02     1.29975673E-38
   2.21999995E-02     1.62645882E-38
   2.25000009E-02     1.83711448E-38
   2.28000004E-02     1.85899926E-38
   2.30999999E-02     1.62104701E-38
   2.33999994E-02     1.06484348E-38
   2.37000007E-02     1.57545464E-39
   2.40000002E-02    -1.09452606E-38
   2.42999997E-02    -2.63338734E-38
   2.45999992E-02    -4.34017111E-38
   2.49000005E-02    -6.03160450E-38
   2.52000000E-02    -7.46455157E-38
   2.54999995E-02    -8.35059034E-38
   2.58000009E-02    -8.38175466E-38
   2.61000004E-02    -7.26735692E-38
   2.63999999E-02    -4.78018163E-38
   2.66999993E-02    -8.08505213E-39
   2.70000007E-02     4.59152398E-38
   2.73000002E-02     1.11503034E-37
   2.75999997E-02     1.83543822E-37
   2.78999992E-02     2.54400310E-37
   2.82000005E-02     3.14188806E-37
   2.85000000E-02     3.51417248E-37
   2.87999995E-02     3.54031734E-37
   2.91000009E-02     3.10851496E-37
   2.94000003E-02     2.13313544E-37
   2.96999998E-02     5.73860588E-38
   2.99999993E-02    -1.54554051E-37
   3.03000007E-02    -4.12135465E-37
   3.06000002E-02    -6.95987998E-37
   3.08999997E-02    -9.77612443E-37
   3.11999992E-02    -1.22038684E-36
   3.15000005E-02    -1.38189400E-36
   3.18000019E-02    -1.41763953E-36
   3.20999995E-02    -1.28607092E-36
   3.24000008E-02    -9.54620656E-37
   3.26999985E-02    -4.06296916E-37
   3.29999998E-02     3.53848736E-37
   3.33000012E-02     1.29320665E-36
   3.35999988E-02     2.34797553E-36
   3.39000002E-02     3.42234913E-36
   3.42000015E-02     4.39136249E-36
   3.44999991E-02     5.10801406E-36
   3.48000005E-02     5.41492075E-36
   3.51000018E-02     5.16030469E-36
   3.53999995E-02     4.21753404E-36
   3.57000008E-02     2.50684125E-36
   3.59999985E-02     1.72433588E-38
   3.62999998E-02    -3.17382865E-36
   3.66000012E-02    -6.88604146E-36
   3.68999988E-02    -1.08297784E-35
   3.72000001E-02    -1.46106501E-35
   3.75000015E-02    -1.77471436E-35
   3.77999991E-02    -1.97027260E-35
   3.81000005E-02    -1.99324396E-35
   3.84000018E-02    -1.79424462E-35
   3.86999995E-02    -1.33591044E-35
   3.90000008E-02    -6.00236624E-36
   3.92999984E-02     4.04356784E-36
   3.95999998E-02     1.63707649E-35
   3.99000011E-02     3.02086034E-35
   4.01999988E-02     4.44147368E-35
   4.05000001E-02     5.75045351E-35
   4.08000015E-02     6.77254642E-35
   4.10999991E-02     7.31797465E-35
   4.14000005E-02     7.19942421E-35
   4.17000018E-02     6.25312428E-35
   4.19999994E-02     4.36278902E-35
   4.23000008E-02     1.48458939E-35
   4.25999984E-02    -2.32925712E-35
   4.28999998E-02    -6.91114857E-35
   4.32000011E-02    -1.19661571E-34
   4.34999987E-02    -1.70706426E-34
   4.38000001E-02    -2.16842869E-34
   4.41000015E-02    -2.51777000E-34
   4.43999991E-02    -2.68766796E-34
   4.47000004E-02    -2.61227446E-34
   4.50000018E-02    -2.23476767E-34
   4.52999994E-02    -1.51578734E-34
   4.56000008E-02    -4.42201862E-35
   4.58999984E-02     9.64625358E-35
   4.61999997E-02     2.64208518E-34
   4.65000011E-02     4.48219210E-34
   4.67999987E-02     6.33119926E-34
   4.71000001E-02     7.99397505E-34
   4.74000014E-02     9.24392319E-34
   4.76999991E-02     9.83885006E-34
   4.80000004E-02     9.54263834E-34
   4.83000018E-02     8.15195965E-34
   4.85999994E-02     5.52650404E-34
   4.89000008E-02     1.62041793E-34
   4.91999984E-02    -3.48805678E-34
   4.94999997E-02    -9.57239488E-34
   4.98000011E-02    -1.62430471E-33
   5.00999987E-02    -2.29462081E-33
   5.04000001E-02    -2.89797543E-33
   5.07000014E-02    -3.35291543E-33
   5.09999990E-02    -3.57247464E-33
   5.13000004E-02    -3.47198199E-33
   5.16000018E-02    -2.97865971E-33
   5.18999994E-02    -2.04245266E-33
   5.22000007E-02    -6.47244041E-34
   5.24999984E-02     1.17863705E-33
   5.27999997E-02     3.35392783E-33
   5.31000011E-02     5.73939488E-33
   5.33999987E-02     8.13768217E-33
   5.37000000E-02     1.02993090E-32
   5.40000014E-02     1.19357691E-32
   5.42999990E-02     1.27401371E-32
   5.46000004E-02     1.24149042E-32
   5.49000017E-02     1.07059000E-32
   5.51999994E-02     7.44023198E-33
   5.55000007E-02     2.56519096E-33
   5.57999983E-02    -3.81577368E-33
   5.60999997E-02    -1.14145997E-32
   5.64000010E-02    -1.97425937E-32
   5.66999987E-02    -2.81116800E-32
   5.70000000E-02    -3.56570724E-32
   5.73000014E-02    -4.13843366E-32
   5.75999990E-02    -4.42418105E-32
   5.79000004E-02    -4.32170381E-32
   5.82000017E-02    -3.74528781E-32
   5.84999993E-02    -2.63757863E-32
   5.88000007E-02    -9.82571924E-33
   5.90999983E-02     1.18256987E-32
   5.93999997E-02     3.75840985E-32
   5.97000010E-02     6.57845254E-32
   5.99999987E-02     9.41023547E-32
   6.03000000E-02     1.19635973E-31
   6.06000014E-02     1.39069810E-31
   6.08999990E-02     1.48919735E-31
   6.12000003E-02     1.45855033E-31
   6.15000017E-02     1.27081201E-31
   6.17999993E-02     9.07580792E-32
   6.21000007E-02     3.64181551E-32
   6.23999983E-02    -3.46588720E-32
   6.27000034E-02    -1.19164306E-31
   6.30000010E-02    -2.11622814E-31
   6.32999986E-02    -3.04446948E-31
   6.36000037E-02    -3.88223090E-31
   6.39000013E-02    -4.52253302E-31
   6.41999990E-02    -4.85356069E-31
   6.44999966E-02    -4.76904030E-31
   6.48000017E-02    -4.18044724E-31
   6.50999993E-02    -3.03022437E-31
   6.53999969E-02    -1.30485997E-31
   6.57000020E-02     9.53543855E-32
   6.59999996E-02     3.63875804E-31
   6.62999973E-02     6.57654859E-31
   6.66000023E-02     9.52689083E-31
   6.69000000E-02     1.21934462E-30
   6.71999976E-02     1.42409796E-30
   6.75000027E-02     1.53207332E-30
   6.78000003E-02     1.51029649E-30
   6.80999979E-02     1.33149167E-30
   6.84000030E-02     9.78155274E-31
   6.87000006E-02     4.46549850E-31
   6.89999983E-02    -2.49810441E-31
   6.93000033E-02    -1.07765645E-30
   6.96000010E-02    -1.98292036E-30
   6.98999986E-02    -2.89158746E-30
   7.02000037E-02    -3.71278254E-30
   7.05000013E-02    -4.34426939E-30
   7.07999989E-02    -4.68034191E-30
   7.10999966E-02    -4.62182298E-30
   7.14000016E-02    -4.08761252E-30
   7.16999993E-02    -3.02693613E-30
   7.19999969E-02    -1.43119042E-30
   7.23000020E-02     6.55930503E-31
   7.25999996E-02     3.13144905E-30
   7.28999972E-02     5.83066902E-30
   7.32000023E-02     8.53054332E-30
   7.34999999E-02     1.09597616E-29
   7.37999976E-02     1.28159774E-29
   7.41000026E-02     1.37899458E-29
   7.44000003E-02     1.35955668E-29
   7.46999979E-02     1.20039933E-29
   7.50000030E-02     8.87915169E-30
   7.53000006E-02     4.21128732E-30
   7.55999982E-02    -1.85535759E-30
   7.59000033E-02    -9.00484419E-30
   7.62000009E-02    -1.67457668E-29
   7.64999986E-02    -2.44247248E-29
   7.68000036E-02    -3.12592483E-29
   7.71000013E-02    -3.63908285E-29
   7.73999989E-02    -3.89566908E-29
   7.76999965E-02    -3.81767554E-29
   7.80000016E-02    -3.34499034E-29
   7.82999992E-02    -2.44513944E-29
   7.85999969E-02    -1.12216693E-29
   7.89000019E-02     5.76446292E-30
   7.91999996E-02     2.55593293E-29
   7.94999972E-02     4.67446941E-29
   7.98000023E-02     6.74827015E-29
   8.00999999E-02     8.56197736E-29
   8.03999975E-02     9.88431243E-29
   8.07000026E-02     1.04883930E-28
   8.10000002E-02     1.01755305E-28
   8.12999979E-02     8.80071623E-29
   8.16000029E-02     6.29750504E-29
   8.19000006E-02     2.69962084E-29
   8.21999982E-02    -1.84354739E-29
   8.25000033E-02    -7.06029547E-29
   8.28000009E-02    -1.25611149E-28
   8.30999985E-02    -1.78559742E-28
   8.34000036E-02    -2.23849297E-28
   8.37000012E-02    -2.55613900E-28
   8.39999989E-02    -2.68259026E-28
   8.42999965E-02    -2.57069109E-28
   8.46000016E-02    -2.18835186E-28
   8.48999992E-02    -1.52443325E-28
   8.51999968E-02    -5.93568178E-29
   8.55000019E-02     5.60745337E-29
   8.57999995E-02     1.86539315E-28
   8.60999972E-02     3.21971479E-28
   8.64000022E-02     4.50066669E-28
   8.66999999E-02     5.57109229E-28
   8.69999975E-02     6.29079113E-28
   8.73000026E-02     6.52976292E-28
   8.76000002E-02     6.18266749E-28
   8.78999978E-02     5.18326826E-28
   8.82000029E-02     3.51743467E-28
   8.85000005E-02     1.23318366E-28
   8.87999982E-02    -1.55371136E-28
   8.91000032E-02    -4.65980387E-28
   8.94000009E-02    -7.84065821E-28
   8.96999985E-02    -1.08045354E-27
   9.00000036E-02    -1.32328528E-27
   9.03000012E-02    -1.48065109E-27
   9.05999988E-02    -1.52364430E-27
   9.08999965E-02    -1.42961135E-27
   9.12000015E-02    -1.18531195E-27
   9.14999992E-02    -7.89673937E-28
   9.17999968E-02    -2.55814052E-28
   9.21000019E-02     3.87978250E-28
   9.23999995E-02     1.09854851E-27
   9.26999971E-02     1.81964249E-27
   9.30000022E-02     2.48518264E-27
   9.32999998E-02     3.02397483E-27
   9.35999975E-02     3.36561689E-27
   9.39000025E-02     3.44723048E-27
   9.42000002E-02     3.22051482E-27
   9.44999978E-02     2.65849996E-27
   9.48000029E-02     1.76133246E-27
   9.51000005E-02     5.60404736E-28
   9.53999981E-02    -8.79802739E-28
   9.57000032E-02    -2.46267391E-27
   9.60000008E-02    -4.06353692E-27
   9.62999985E-02    -5.53695345E-27
   9.66000035E-02    -6.72702370E-27
   9.69000012E-02    -7.48021021E-27
   9.71999988E-02    -7.65985865E-27
   9.74999964E-02    -7.16136096E-27
   9.78000015E-02    -5.92663494E-27
   9.80999991E-02    -3.95651338E-27
   9.83999968E-02    -1.31958903E-27
   9.87000018E-02     1.84382100E-27
   9.89999995E-02     5.32368675E-27
   9.92999971E-02     8.84895553E-27
   9.96000022E-02     1.21031385E-26
   9.98999998E-02     1.47463972E-26
  0.100199997         1.64431107E-26
  0.100500003         1.68932113E-26
  0.100800000         1.58650374E-26
  0.101099998         1.32269048E-26
  0.101400003         8.97434667E-27
  0.101700000         3.24988429E-27
  0.101999998        -3.64762734E-27
  0.102300003        -1.12664991E-26
  0.102600001        -1.90202006E-26
  0.102899998        -2.62204145E-26
  0.103200004        -3.21244314E-26
  0.103500001        -3.59947617E-26
  0.103799999        -3.71673695E-26
  0.104099996        -3.51236004E-26
  0.104400001        -2.95598168E-26
  0.104699999        -2.04479680E-26
  0.104999997        -8.08017591E-27
  0.105300002         6.90921282E-27
  0.105599999         2.35495919E-26
  0.105899997         4.05718128E-26
  0.106200002         5.64790697E-26
  0.106500000         6.96494661E-26
  0.106799997         7.84656831E-26
  0.107100002         8.14639462E-26
  0.107400000         7.74914461E-26
  0.107699998         6.58590387E-26
  0.108000003         4.64743351E-26
  0.108300000         1.99400063E-26
  0.108599998        -1.23971433E-26
  0.108900003        -4.84581877E-26
  0.109200001        -8.55133233E-26
  0.109499998        -1.20335172E-25
  0.109800003        -1.49420757E-25
  0.110100001        -1.69271752E-25
  0.110399999        -1.76715899E-25
  0.110699996        -1.69245682E-25
  0.111000001        -1.45345711E-25
  0.111299999        -1.04776641E-25
  0.111599997        -4.87831399E-26
  0.111900002         1.98044640E-26
  0.112199999         9.65996417E-26
  0.112499997         1.75836430E-25
  0.112800002         2.50698319E-25
  0.113100000         3.13790626E-25
  0.113399997         3.57733062E-25
  0.113700002         3.75834832E-25
  0.114000000         3.62801543E-25
  0.114299998         3.15413140E-25
  0.114600003         2.33106475E-25
  0.114900000         1.18395191E-25
  0.115199998        -2.29335793E-26
  0.115500003        -1.81894907E-25
  0.115800001        -3.46683981E-25
  0.116099998        -5.03362431E-25
  0.116400003        -6.36831878E-25
  0.116700001        -7.32043100E-25
  0.116999999        -7.75362016E-25
  0.117299996        -7.55987543E-25
  0.117600001        -6.67298278E-25
  0.117899999        -5.07996003E-25
  0.118199997        -2.82914807E-25
  0.118500002        -3.37915541E-27
  0.118799999         3.12979529E-25
  0.119099997         6.42999390E-25
  0.119400002         9.59361751E-25
  0.119700000         1.23251164E-24
  0.119999997         1.43301829E-24
  0.120300002         1.53421515E-24
  0.120600000         1.51491487E-24
  0.120899998         1.36196076E-24
  0.121200003         1.07236647E-24
  0.121500000         6.54798678E-25
  0.121799998         1.30193444E-25
  0.122100003        -4.68652502E-25
  0.122400001        -1.09859659E-24
  0.122699998        -1.70876226E-24
  0.123000003        -2.24413928E-24
  0.123300001        -2.64995832E-24
  0.123599999        -2.87653514E-24
  0.123899996        -2.88420188E-24
  0.124200001        -2.64789130E-24
  0.124499999        -2.16092806E-24
  0.124799997        -1.43759980E-24
  0.125100002        -5.14149759E-25
  0.125400007         5.52065027E-25
  0.125699997         1.68536661E-24
  0.126000002         2.79645196E-24
  0.126300007         3.78876995E-24
  0.126599997         4.56617896E-24
  0.126900002         5.04133394E-24
  0.127200007         5.14412962E-24
  0.127499998         4.82945300E-24
  0.127800003         4.08349154E-24
  0.128099993         2.92789985E-24
  0.128399998         1.42125017E-24
  0.128700003        -3.42614445E-25
  0.128999993        -2.23946153E-24
  0.129299998        -4.12265178E-24
  0.129600003        -5.83379166E-24
  0.129899994        -7.21534782E-24
  0.130199999        -8.12428598E-24
  0.130500004        -8.44560086E-24
  0.130799994        -8.10454553E-24
  0.131099999        -7.07634974E-24
  0.131400004        -5.39236955E-24
  0.131699994        -3.14181920E-24
  0.131999999        -4.68582293E-25
  0.132300004         2.43701892E-24
  0.132599995         5.35115354E-24
  0.132900000         8.03333111E-24
  0.133200005         1.02459645E-23
  0.133499995         1.17751153E-23
  0.133800000         1.24506374E-23
  0.134100005         1.21638857E-23
  0.134399995         1.08812121E-23
  0.134700000         8.65172785E-24
  0.135000005         5.60823227E-24
  0.135299996         1.96073212E-24
  0.135600001        -2.01737194E-24
  0.135900006        -6.00967688E-24
  0.136199996        -9.68233360E-24
  0.136500001        -1.27127704E-23
  0.136800006        -1.48191434E-23
  0.137099996        -1.57878409E-23
  0.137400001        -1.54963489E-23
  0.137700006        -1.39290290E-23
  0.137999997        -1.11838617E-23
  0.138300002        -7.46891848E-24
  0.138600007        -3.08822557E-24
  0.138899997         1.58233517E-24
  0.139200002         6.12742738E-24
  0.139500007         1.01303711E-23
  0.139799997         1.32136308E-23
  0.140100002         1.50778614E-23
  0.140400007         1.55355316E-23
  0.140699998         1.45353791E-23
  0.141000003         1.21745874E-23
  0.141299993         8.69649176E-24
  0.141599998         4.47297741E-24
  0.141900003        -2.78591159E-26
  0.142199993        -4.28664176E-24
  0.142499998        -7.78661801E-24
  0.142800003        -1.00716885E-23
  0.143099993        -1.08028277E-23
  0.143399999        -9.80679219E-24
  0.143700004        -7.11121661E-24
  0.143999994        -2.96100420E-24
  0.144299999         2.18765289E-24
  0.144600004         7.69736629E-24
  0.144899994         1.28031888E-23
  0.145199999         1.66867258E-23
  0.145500004         1.85652103E-23
  0.145799994         1.77878431E-23
  0.146100000         1.39300814E-23
  0.146400005         6.87565564E-24
  0.146699995        -3.12383081E-24
  0.147000000        -1.54208770E-23
  0.147300005        -2.89826329E-23
  0.147599995        -4.24440488E-23
  0.147900000        -5.42038824E-23
  0.148200005        -6.25595034E-23
  0.148499995        -6.58721386E-23
  0.148800001        -6.27501427E-23
  0.149100006        -5.22343365E-23
  0.149399996        -3.39674418E-23
  0.149700001        -8.32861042E-24
  0.150000006         2.34849287E-23
  0.150299996         5.94444557E-23
  0.150600001         9.67553993E-23
  0.150900006         1.32006861E-22
  0.151199996         1.61402582E-22
  0.151500002         1.81063015E-22
  0.151800007         1.87380213E-22
  0.152099997         1.77400000E-22
  0.152400002         1.49200090E-22
  0.152700007         1.02228844E-22
  0.152999997         3.75687875E-23
  0.153300002        -4.19095893E-23
  0.153600007        -1.31532408E-22
  0.153899997        -2.24965763E-22
  0.154200003        -3.14527022E-22
  0.154499993        -3.91659443E-22
  0.154799998        -4.47551210E-22
  0.155100003        -4.73864379E-22
  0.155399993        -4.63526539E-22
  0.155699998        -4.11525005E-22
  0.156000003        -3.15637284E-22
  0.156299993        -1.77027152E-22
  0.156599998        -6.38820301E-25
  0.156900004         2.04670366E-22
  0.157199994         4.26303816E-22
  0.157499999         6.48431749E-22
  0.157800004         8.52831088E-22
  0.158099994         1.02003335E-21
  0.158399999         1.13072783E-21
  0.158700004         1.16733834E-21
  0.158999994         1.11567035E-21
  0.159299999         9.66505616E-22
  0.159600005         7.17012110E-22
  0.159899995         3.71833942E-22
  0.160200000        -5.62608466E-23
  0.160500005        -5.46281608E-22
  0.160799995        -1.06953756E-21
  0.161100000        -1.59081685E-21
  0.161400005        -2.07020931E-21
  0.161699995        -2.46551077E-21
  0.162000000        -2.73509350E-21
  0.162300006        -2.84108207E-21
  0.162599996        -2.75263049E-21
  0.162900001        -2.44907056E-21
  0.163200006        -1.92268016E-21
  0.163499996        -1.18083052E-21
  0.163800001        -2.47285402E-22
  0.164100006         8.37532639E-22
  0.164399996         2.01743778E-21
  0.164700001         3.22259328E-21
  0.165000007         4.37281761E-21
  0.165299997         5.38196624E-21
  0.165600002         6.16319067E-21
  0.165900007         6.63478904E-21
  0.166199997         6.72629831E-21
  0.166500002         6.38442958E-21
  0.166800007         5.57842608E-21
  0.167099997         4.30442092E-21
  0.167400002         2.58842403E-21
  0.167699993         4.87610147E-22
  0.167999998        -1.91031264E-21
  0.168300003        -4.48976188E-21
  0.168599993        -7.11195350E-21
  0.168899998        -9.62142884E-21
  0.169200003        -1.18541460E-20
  0.169499993        -1.36467240E-20
  0.169799998        -1.48463200E-20
  0.170100003        -1.53205643E-20
  0.170399994        -1.49669252E-20
  0.170699999        -1.37208956E-20
  0.171000004        -1.15624380E-20
  0.171299994        -8.52021880E-21
  0.171599999        -4.67328248E-21
  0.171900004        -1.49975408E-22
  0.172199994         4.87590498E-21
  0.172499999         1.01915776E-20
  0.172800004         1.55540377E-20
  0.173099995         2.07006472E-20
  0.173400000         2.53609505E-20
  0.173700005         2.92690848E-20
  0.173999995         3.21760786E-20
  0.174300000         3.38613912E-20
  0.174600005         3.41431270E-20
  0.174899995         3.28864587E-20
  0.175200000         3.00099543E-20
  0.175500005         2.54896998E-20
  0.175799996         1.93612544E-20
  0.176100001         1.17196702E-20
  0.176400006         2.71792506E-21
  0.176699996        -7.43578744E-21
  0.177000001        -1.84814299E-20
  0.177300006        -3.01107314E-20
  0.177599996        -4.19706822E-20
  0.177900001        -5.36667802E-20
  0.178200006        -6.47660318E-20
  0.178499997        -7.48000558E-20
  0.178800002        -8.32688408E-20
  0.179100007        -8.96459186E-20
  0.179399997        -9.33860157E-20
  0.179700002        -9.39362136E-20
  0.180000007        -9.07517621E-20
  0.180299997        -8.33174635E-20
  0.180600002        -7.11753374E-20
  0.180899993        -5.39587976E-20
  0.181199998        -3.14330216E-20
  0.181500003        -3.54045419E-21
  0.181799993         2.95503488E-20
  0.182099998         6.73951931E-20
  0.182400003         1.09227468E-19
  0.182699993         1.53918292E-19