  -5.99999987E-02     0.00000000    
  -5.97000010E-02    -2.27617791E-09
  -5.93999997E-02    -6.85734403E-09
  -5.90999983E-02    -1.35202338E-08
  -5.88000007E-02    -2.18228742E-08
  -5.84999993E-02    -3.11662482E-08
  -5.82000017E-02    -4.08764684E-08
  -5.79000004E-02    -5.02970678E-08
  -5.75999990E-02    -5.88798166E-08
  -5.73000014E-02    -6.62626647E-08
  -5.70000000E-02    -7.23251361E-08
  -5.66999987E-02    -7.72143949E-08
  -5.64000010E-02    -8.13389178E-08
  -5.60999997E-02    -8.53309174E-08
  -5.57999983E-02    -8.99825068E-08
  -5.55000007E-02    -9.61638236E-08
  -5.51999994E-02    -1.04733765E-07
  -5.49000017E-02    -1.16454473E-07
  -5.46000004E-02    -1.31920487E-07
  -5.42999990E-02    -1.51511315E-07
  -5.40000014E-02    -1.75373316E-07
  -5.37000000E-02    -2.03432947E-07
  -5.33999987E-02    -2.35439771E-07
  -5.31000011E-02    -2.71033741E-07
  -5.27999997E-02    -3.09828351E-07
  -5.24999984E-02    -3.51499978E-07
  -5.22000007E-02    -3.95871893E-07
  -5.18999994E-02    -4.42984202E-07
  -5.16000018E-02    -4.93140533E-07
  -5.13000004E-02    -5.46927538E-07
  -5.09999990E-02    -6.05204832E-07
  -5.07000014E-02    -6.69068413E-07
  -5.04000001E-02    -7.39791517E-07
  -5.00999987E-02    -8.18752596E-07
  -4.98000011E-02    -9.07358356E-07
  -4.94999997E-02    -1.00697264E-06
  -4.91999984E-02    -1.11885981E-06
  -4.89000008E-02    -1.24414964E-06
  -4.85999994E-02    -1.38382916E-06
  -4.83000018E-02    -1.53876022E-06
  -4.80000004E-02    -1.70972396E-06
  -4.76999991E-02    -1.89748391E-06
  -4.74000014E-02    -2.10286316E-06
  -4.71000001E-02    -2.32682396E-06
  -4.67999987E-02    -2.57054398E-06
  -4.65000011E-02    -2.83547752E-06
  -4.61999997E-02    -3.12339830E-06
  -4.58999984E-02    -3.43641636E-06
  -4.56000008E-02    -3.77697279E-06
  -4.52999994E-02    -4.14780834E-06
  -4.50000018E-02    -4.55191457E-06
  -4.47000004E-02    -4.99247426E-06
  -4.43999991E-02    -5.47279706E-06
  -4.41000015E-02    -5.99625901E-06
  -4.38000001E-02    -6.56625662E-06
  -4.34999987E-02    -7.18617684E-06
  -4.32000011E-02    -7.85939119E-06
  -4.28999998E-02    -8.58927160E-06
  -4.25999984E-02    -9.37923141E-06
  -4.23000008E-02    -1.02327767E-05
  -4.19999994E-02    -1.11535765E-05
  -4.17000018E-02    -1.21455296E-05
  -4.14000005E-02    -1.32128289E-05
  -4.10999991E-02    -1.43600137E-05
  -4.08000015E-02    -1.55919988E-05
  -4.05000001E-02    -1.69140858E-05
  -4.01999988E-02    -1.83319517E-05
  -3.99000011E-02    -1.98516009E-05
  -3.95999998E-02    -2.14793217E-05
  -3.92999984E-02    -2.32216007E-05
  -3.90000008E-02    -2.50850644E-05
  -3.86999995E-02    -2.70763958E-05
  -3.84000018E-02    -2.92022742E-05
  -3.81000005E-02    -3.14693316E-05
  -3.77999991E-02    -3.38841237E-05
  -3.75000015E-02    -3.64531297E-05
  -3.72000001E-02    -3.91827489E-05
  -3.68999988E-02    -4.20793476E-05
  -3.66000012E-02    -4.51492851E-05
  -3.62999998E-02    -4.83989497E-05
  -3.59999985E-02    -5.18347952E-05
  -3.57000008E-02    -5.54633443E-05
  -3.53999995E-02    -5.92911856E-05
  -3.51000018E-02    -6.33249438E-05
  -3.48000005E-02    -6.75712290E-05
  -3.44999991E-02    -7.20365279E-05
  -3.42000015E-02    -7.67271486E-05
  -3.39000002E-02    -8.16490647E-05
  -3.35999988E-02    -8.68078278E-05
  -3.33000012E-02    -9.22084437E-05
  -3.29999998E-02    -9.78552634E-05
  -3.26999985E-02    -1.03751918E-04
  -3.24000008E-02    -1.09901230E-04
  -3.20999995E-02    -1.16305186E-04
  -3.18000019E-02    -1.22964921E-04
  -3.15000005E-02    -1.29880675E-04
  -3.11999992E-02    -1.37051815E-04
  -3.08999997E-02    -1.44476828E-04
  -3.06000002E-02    -1.52153269E-04
  -3.03000007E-02    -1.60077790E-04
  -2.99999993E-02    -1.68246072E-04
  -2.96999998E-02    -1.76652728E-04
  -2.94000003E-02    -1.85291239E-04
  -2.91000009E-02    -1.94153821E-04
  -2.87999995E-02    -2.03231379E-04
  -2.85000000E-02    -2.12513274E-04
  -2.82000005E-02    -2.21987313E-04
  -2.78999992E-02    -2.31639584E-04
  -2.75999997E-02    -2.41454385E-04
  -2.73000002E-02    -2.51414196E-04
  -2.70000007E-02    -2.61499605E-04
  -2.66999993E-02    -2.71689350E-04
  -2.63999999E-02    -2.81960296E-04
  -2.61000004E-02    -2.92287528E-04
  -2.58000009E-02    -3.02644330E-04
  -2.54999995E-02    -3.13002267E-04
  -2.52000000E-02    -3.23331304E-04
  -2.49000005E-02    -3.33599746E-04
  -2.45999992E-02    -3.43774300E-04
  -2.42999997E-02    -3.53820156E-04
  -2.40000002E-02    -3.63700994E-04
  -2.37000007E-02    -3.73378891E-04
  -2.33999994E-02    -3.82814527E-04
  -2.30999999E-02    -3.91967042E-04
  -2.28000004E-02    -4.00794233E-04
  -2.25000009E-02    -4.09252476E-04
  -2.21999995E-02    -4.17297037E-04
  -2.19000001E-02    -4.24881931E-04
  -2.16000006E-02    -4.31960332E-04
  -2.12999992E-02    -4.38484654E-04
  -2.09999997E-02    -4.44406731E-04
  -2.07000002E-02    -4.49678133E-04
  -2.04000007E-02    -4.54250374E-04
  -2.00999994E-02    -4.58075054E-04
  -1.97999999E-02    -4.61104326E-04
  -1.95000004E-02    -4.63290926E-04
  -1.92000009E-02    -4.64588462E-04
  -1.88999996E-02    -4.64951707E-04
  -1.86000001E-02    -4.64336685E-04
  -1.83000006E-02    -4.62701020E-04
  -1.79999992E-02    -4.60003968E-04
  -1.76999997E-02    -4.56206850E-04
  -1.74000002E-02    -4.51273052E-04
  -1.71000008E-02    -4.45168407E-04
  -1.67999994E-02    -4.37861367E-04
  -1.64999999E-02    -4.29323321E-04
  -1.62000004E-02    -4.19528777E-04
  -1.59000009E-02    -4.08455642E-04
  -1.55999996E-02    -3.96085612E-04
  -1.53000001E-02    -3.82404251E-04
  -1.49999997E-02    -3.67401371E-04
  -1.47000002E-02    -3.51071241E-04
  -1.43999998E-02    -3.33412725E-04
  -1.41000003E-02    -3.14429490E-04
  -1.37999998E-02    -2.94130208E-04
  -1.35000004E-02    -2.72528559E-04
  -1.31999999E-02    -2.49643403E-04
  -1.29000004E-02    -2.25498763E-04
  -1.26000000E-02    -2.00123905E-04
  -1.22999996E-02    -1.73553315E-04
  -1.20000001E-02    -1.45826678E-04
  -1.16999997E-02    -1.16988856E-04
  -1.14000002E-02    -8.70898439E-05
  -1.10999998E-02    -5.61847010E-05
  -1.08000003E-02    -2.43334744E-05
  -1.04999999E-02     8.39888617E-06
  -1.02000004E-02     4.19426615E-05
  -9.89999995E-03     7.62234995E-05
  -9.60000046E-03     1.11162582E-04
  -9.30000003E-03     1.46676859E-04
  -8.99999961E-03     1.82679243E-04
  -8.70000012E-03     2.19078967E-04
  -8.39999970E-03     2.55781779E-04
  -8.10000021E-03     2.92690471E-04
  -7.79999979E-03     3.29705043E-04
  -7.49999983E-03     3.66723310E-04
  -7.19999988E-03     4.03641228E-04
  -6.89999992E-03     4.40353295E-04
  -6.59999996E-03     4.76753135E-04
  -6.30000001E-03     5.12733823E-04
  -6.00000005E-03     5.48188458E-04
  -5.70000010E-03     5.83010376E-04
  -5.40000014E-03     6.17093989E-04
  -5.10000018E-03     6.50334754E-04
  -4.80000023E-03     6.82629878E-04
  -4.49999981E-03     7.13878893E-04
  -4.19999985E-03     7.43983546E-04
  -3.89999989E-03     7.72848784E-04
  -3.59999994E-03     8.00382870E-04
  -3.29999998E-03     8.26497853E-04
  -3.00000003E-03     8.51110031E-04
  -2.70000007E-03     8.74140242E-04
  -2.40000011E-03     8.95514502E-04
  -2.09999993E-03     9.15164128E-04
  -1.79999997E-03     9.33026196E-04
  -1.50000001E-03     9.49043839E-04
  -1.20000006E-03     9.63166589E-04
  -8.99999985E-04     9.75350675E-04
  -6.00000028E-04     9.85558960E-04
  -3.00000014E-04     9.93761467E-04
   0.00000000         9.99935088E-04
   3.00000014E-04     1.00406399E-03
   6.00000028E-04     1.00613956E-03
   8.99999985E-04     1.00616016E-03
   1.20000006E-03     1.00413139E-03
   1.50000001E-03     1.00006605E-03
   1.79999997E-03     9.93983587E-04
   2.09999993E-03     9.85910650E-04
   2.40000011E-03     9.75880481E-04
   2.70000007E-03     9.63932835E-04
   3.00000003E-03     9.50114045E-04
   3.29999998E-03     9.34476499E-04
   3.59999994E-03     9.17078636E-04
   3.89999989E-03     8.97984602E-04
   4.19999985E-03     8.77263839E-04
   4.49999981E-03     8.54990969E-04
   4.80000023E-03     8.31245154E-04
   5.10000018E-03     8.06109805E-04
   5.40000014E-03     7.79672293E-04
   5.70000010E-03     7.52023130E-04
   6.00000005E-03     7.23255973E-04
   6.30000001E-03     6.93466631E-04
   6.59999996E-03     6.62753126E-04
   6.89999992E-03     6.31214818E-04
   7.19999988E-03     5.98952174E-04
   7.49999983E-03     5.66066301E-04
   7.79999979E-03     5.32658480E-04
   8.10000021E-03     4.98829875E-04
   8.39999970E-03     4.64681012E-04
   8.70000012E-03     4.30311426E-04
   8.99999961E-03     3.95819341E-04
   9.30000003E-03     3.61301296E-04
   9.60000046E-03     3.26851703E-04
   9.89999995E-03     2.92562589E-04
   1.02000004E-02     2.58523156E-04
   1.04999999E-02     2.24819465E-04
   1.08000003E-02     1.91534200E-04
   1.10999998E-02     1.58746247E-04
   1.14000002E-02     1.26530533E-04
   1.16999997E-02     9.49577079E-05
   1.20000001E-02     6.40940343E-05
   1.22999996E-02     3.40011684E-05
   1.26000000E-02     4.73606769E-06
   1.29000004E-02    -2.36490832E-05
   1.31999999E-02    -5.11069302E-05
   1.35000004E-02    -7.75949593E-05
   1.37999998E-02    -1.03075487E-04
   1.41000003E-02    -1.27515639E-04
   1.43999998E-02    -1.50887296E-04
   1.47000002E-02    -1.73167064E-04
   1.49999997E-02    -1.94336157E-04
   1.53000001E-02    -2.14380372E-04
   1.55999996E-02    -2.33289960E-04
   1.59000009E-02    -2.51059566E-04
   1.62000004E-02    -2.67688098E-04
   1.64999999E-02    -2.83178495E-04
   1.67999994E-02    -2.97537743E-04
   1.71000008E-02    -3.10776551E-04
   1.74000002E-02    -3.22909298E-04
   1.76999997E-02    -3.33953561E-04
   1.79999992E-02    -3.43930209E-04
   1.83000006E-02    -3.52862873E-04
   1.86000001E-02    -3.60777805E-04
   1.88999996E-02    -3.67703644E-04
   1.92000009E-02    -3.73671093E-04
   1.95000004E-02    -3.78712633E-04
   1.97999999E-02    -3.82862432E-04
   2.00999994E-02    -3.86155938E-04
   2.04000007E-02    -3.88629705E-04
   2.07000002E-02    -3.90321220E-04
   2.09999997E-02    -3.91268753E-04
   2.12999992E-02    -3.91511014E-04
   2.16000006E-02    -3.91087146E-04
   2.19000001E-02    -3.90036439E-04
   2.21999995E-02    -3.88398214E-04
   2.25000009E-02    -3.86211614E-04
   2.28000004E-02    -3.83515493E-04
   2.30999999E-02    -3.80348210E-04
   2.33999994E-02    -3.76747455E-04
   2.37000007E-02    -3.72750132E-04
   2.40000002E-02    -3.68392182E-04
   2.42999997E-02    -3.63708474E-04
   2.45999992E-02    -3.58732650E-04
   2.49000005E-02    -3.53497104E-04
   2.52000000E-02    -3.48032772E-04
   2.54999995E-02    -3.42369196E-04
   2.58000009E-02    -3.36534460E-04
   2.61000004E-02    -3.30555078E-04
   2.63999999E-02    -3.24456079E-04
   2.66999993E-02    -3.18260980E-04
   2.70000007E-02    -3.11991840E-04
   2.73000002E-02    -3.05669208E-04
   2.75999997E-02    -2.99312174E-04
   2.78999992E-02    -2.92938406E-04
   2.82000005E-02    -2.86564173E-04
   2.85000000E-02    -2.80204345E-04
   2.87999995E-02    -2.73872371E-04
   2.91000009E-02    -2.67580355E-04
   2.94000003E-02    -2.61339126E-04
   2.96999998E-02    -2.55158142E-04
   2.99999993E-02    -2.49045552E-04
   3.03000007E-02    -2.43008370E-04
   3.06000002E-02    -2.37052329E-04
   3.08999997E-02    -2.31182144E-04
   3.11999992E-02    -2.25401469E-04
   3.15000005E-02    -2.19713038E-04
   3.18000019E-02    -2.14118743E-04
   3.20999995E-02    -2.08619691E-04
   3.24000008E-02    -2.03216390E-04
   3.26999985E-02    -1.97908710E-04
   3.29999998E-02    -1.92696083E-04
   3.33000012E-02    -1.87577461E-04
   3.35999988E-02    -1.82551434E-04
   3.39000002E-02    -1.77616253E-04
   3.42000015E-02    -1.72769869E-04
   3.44999991E-02    -1.68009967E-04
   3.48000005E-02    -1.63333956E-04
   3.51000018E-02    -1.58739058E-04
   3.53999995E-02    -1.54222318E-04
   3.57000008E-02    -1.49780608E-04
   3.59999985E-02    -1.45410726E-04
   3.62999998E-02    -1.41109413E-04
   3.66000012E-02    -1.36873437E-04
   3.68999988E-02    -1.32699599E-04
   3.72000001E-02    -1.28584841E-04
   3.75000015E-02    -1.24526312E-04
   3.77999991E-02    -1.20521341E-04
   3.81000005E-02    -1.16567513E-04
   3.84000018E-02    -1.12662696E-04
   3.86999995E-02    -1.08805012E-04
   3.90000008E-02    -1.04992869E-04
   3.92999984E-02    -1.01224927E-04
   3.95999998E-02    -9.75000657E-05
   3.99000011E-02    -9.38173980E-05
   4.01999988E-02    -9.01762105E-05
   4.05000001E-02    -8.65759721E-05
   4.08000015E-02    -8.30163262E-05
   4.10999991E-02    -7.94970620E-05
   4.14000005E-02    -7.60181574E-05
   4.17000018E-02    -7.25797581E-05
   4.19999994E-02    -6.91822206E-05
   4.23000008E-02    -6.58260979E-05
   4.25999984E-02    -6.25121611E-05
   4.28999998E-02    -5.92414217E-05
   4.32000011E-02    -5.60150984E-05
   4.34999987E-02    -5.28346209E-05
   4.38000001E-02    -4.97016008E-05
   4.41000015E-02    -4.66177989E-05
   4.43999991E-02    -4.35850961E-05
   4.47000004E-02    -4.06054387E-05
   4.50000018E-02    -3.76808021E-05
   4.52999994E-02    -3.48131689E-05
   4.56000008E-02    -3.20044819E-05
   4.58999984E-02    -2.92566274E-05
   4.61999997E-02    -2.65714316E-05
   4.65000011E-02    -2.39506444E-05
   4.67999987E-02    -2.13959520E-05
   4.71000001E-02    -1.89089769E-05
   4.74000014E-02    -1.64912872E-05
   4.76999991E-02    -1.41444089E-05
   4.80000004E-02    -1.18698172E-05
   4.83000018E-02    -9.66894277E-06
   4.85999994E-02    -7.54315533E-06
   4.89000008E-02    -5.49374590E-06
   4.91999984E-02    -3.52190568E-06
   4.94999997E-02    -1.62869878E-06
   4.98000011E-02     1.84965856E-07
   5.00999987E-02     1.91835875E-06
   5.04000001E-02     3.57095064E-06
   5.07000014E-02     5.14242674E-06
   5.09999990E-02     6.63269202E-06
   5.13000004E-02     8.04186857E-06
   5.16000018E-02     9.37028744E-06
   5.18999994E-02     1.06184707E-05
   5.22000007E-02     1.17871141E-05
   5.24999984E-02     1.28770671E-05
   5.27999997E-02     1.38893101E-05
   5.31000011E-02     1.48249446E-05
   5.33999987E-02     1.56851802E-05
   5.37000000E-02     1.64713292E-05
   5.40000014E-02     1.71848096E-05
   5.42999990E-02     1.78271548E-05
   5.46000004E-02     1.84000146E-05
   5.49000017E-02     1.89051752E-05
   5.51999994E-02     1.93445576E-05
   5.55000007E-02     1.97202298E-05
   5.57999983E-02     2.00344075E-05
   5.60999997E-02     2.02894407E-05
   5.64000010E-02     2.04878052E-05
   5.66999987E-02     2.06320819E-05
   5.70000000E-02     2.07249359E-05
   5.73000014E-02     2.07690828E-05
   5.75999990E-02     2.07672601E-05
   5.79000004E-02     2.07222147E-05
   5.82000017E-02     2.06366567E-05
   5.84999993E-02     2.05132674E-05
   5.88000007E-02     2.03546679E-05
   5.90999983E-02     2.01634266E-05
   5.93999997E-02     1.99420592E-05
   5.97000010E-02     1.96930305E-05
   5.99999987E-02     1.94187778E-05
   6.03000000E-02     1.91217023E-05
   6.06000014E-02     1.88042013E-05
   6.08999990E-02     1.84686542E-05
   6.12000003E-02     1.81174382E-05
   6.15000017E-02     1.77529109E-05
   6.17999993E-02     1.73774060E-05
   6.21000007E-02     1.69932155E-05
   6.23999983E-02     1.66025638E-05
   6.27000034E-02     1.62075812E-05
   6.30000010E-02     1.58102866E-05
   6.32999986E-02     1.54125628E-05
   6.36000037E-02     1.50161422E-05
   6.39000013E-02     1.46225939E-05
   6.41999990E-02     1.42333274E-05
   6.44999966E-02     1.38496007E-05
   6.48000017E-02     1.34725342E-05
   6.50999993E-02     1.31031329E-05
   6.53999969E-02     1.27423118E-05
   6.57000020E-02     1.23909149E-05
   6.59999996E-02     1.20497452E-05
   6.62999973E-02     1.17195714E-05
   6.66000023E-02     1.14011418E-05
   6.69000000E-02     1.10951805E-05
   6.71999976E-02     1.08023751E-05
   6.75000027E-02     1.05233621E-05
   6.78000003E-02     1.02587010E-05
   6.80999979E-02     1.00088491E-05
   6.84000030E-02     9.77413583E-06
   6.87000006E-02     9.55474570E-06
   6.89999983E-02     9.35070329E-06
   6.93000033E-02     9.16187400E-06
   6.96000010E-02     8.98797134E-06
   6.98999986E-02     8.82857876E-06
   7.02000037E-02     8.68317329E-06
   7.05000013E-02     8.55116559E-06
   7.07999989E-02     8.43192902E-06
   7.10999966E-02     8.32483784E-06
   7.14000016E-02     8.22929178E-06
   7.16999993E-02     8.14473151E-06
   7.19999969E-02     8.07064498E-06
   7.23000020E-02     8.00656107E-06
   7.25999996E-02     7.95203050E-06
   7.28999972E-02     7.90659487E-06
   7.32000023E-02     7.86976216E-06
   7.34999999E-02     7.84096392E-06
   7.37999976E-02     7.81953440E-06
   7.41000026E-02     7.80468326E-06
   7.44000003E-02     7.79548918E-06
   7.46999979E-02     7.79090442E-06
   7.50000030E-02     7.78976846E-06
   7.53000006E-02     7.79084075E-06
   7.55999982E-02     7.79283619E-06
   7.59000033E-02     7.79447055E-06
   7.62000009E-02     7.79449965E-06
   7.64999986E-02     7.79175571E-06
   7.68000036E-02     7.78517915E-06
   7.71000013E-02     7.77383048E-06
   7.73999989E-02     7.75689205E-06
   7.76999965E-02     7.73365355E-06
   7.80000016E-02     7.70348834E-06
   7.82999992E-02     7.66582252E-06
   7.85999969E-02     7.62009449E-06
   7.89000019E-02     7.56572263E-06
   7.91999996E-02     7.50207482E-06
   7.94999972E-02     7.42845305E-06
   7.98000023E-02     7.34408695E-06
   8.00999999E-02     7.24814572E-06
   8.03999975E-02     7.13976078E-06
   8.07000026E-02     7.01806403E-06
   8.10000002E-02     6.88223145E-06
   8.12999979E-02     6.73152726E-06
   8.16000029E-02     6.56535076E-06
   8.19000006E-02     6.38326992E-06
   8.21999982E-02     6.18504873E-06
   8.25000033E-02     5.97065400E-06
   8.28000009E-02     5.74025353E-06
   8.30999985E-02     5.49419246E-06
   8.34000036E-02     5.23296330E-06
   8.37000012E-02     4.95716631E-06
   8.39999989E-02     4.66746496E-06
   8.42999965E-02     4.36454638E-06
   8.46000016E-02     4.04908633E-06
   8.48999992E-02     3.72172963E-06
   8.51999968E-02     3.38307905E-06
   8.55000019E-02     3.03370234E-06
   8.57999995E-02     2.67415112E-06
   8.60999972E-02     2.30499245E-06
   8.64000022E-02     1.92684502E-06
   8.66999999E-02     1.54041857E-06
   8.69999975E-02     1.14654995E-06
   8.73000026E-02     7.46230683E-07
   8.76000002E-02     3.40622535E-07
   8.78999978E-02    -6.89417092E-08
   8.82000029E-02    -4.80972574E-07
   8.85000005E-02    -8.93853439E-07
   8.87999982E-02    -1.30588137E-06
   8.91000032E-02    -1.71531667E-06
   8.94000009E-02    -2.12043460E-06
   8.96999985E-02    -2.51957567E-06
   9.00000036E-02    -2.91118840E-06
   9.03000012E-02    -3.29385966E-06
   9.05999988E-02    -3.66633299E-06
   9.08999965E-02    -4.02750902E-06
   9.12000015E-02    -4.37643348E-06
   9.14999992E-02    -4.71226895E-06
   9.17999968E-02    -5.03426418E-06
   9.21000019E-02    -5.34171249E-06
   9.23999995E-02    -5.63391677E-06
   9.26999971E-02    -5.91015942E-06
   9.30000022E-02    -6.16968236E-06
   9.32999998E-02    -6.41168435E-06
   9.35999975E-02    -6.63532956E-06
   9.39000025E-02    -6.83977396E-06
   9.42000002E-02    -7.02420357E-06
   9.44999978E-02    -7.18788033E-06
   9.48000029E-02    -7.33019351E-06
   9.51000005E-02    -7.45070656E-06
   9.53999981E-02    -7.54919665E-06
   9.57000032E-02    -7.62568243E-06
   9.60000008E-02    -7.68043355E-06
   9.62999985E-02    -7.71396662E-06
   9.66000035E-02    -7.72701696E-06
   9.69000012E-02    -7.72050407E-06
   9.71999988E-02    -7.69547751E-06
   9.74999964E-02    -7.65306504E-06
   9.78000015E-02    -7.59441764E-06
   9.80999991E-02    -7.52066489E-06
   9.83999968E-02    -7.43287819E-06
   9.87000018E-02    -7.33205343E-06
   9.89999995E-02    -7.21911147E-06
   9.92999971E-02    -7.09491133E-06
   9.96000022E-02    -6.96028474E-06
   9.98999998E-02    -6.81607253E-06
  0.100199997        -6.66317146E-06
  0.100500003        -6.50257425E-06
  0.100800000        -6.33540185E-06
  0.101099998        -6.16292255E-06
  0.101400003        -5.98655151E-06
  0.101700000        -5.80783444E-06
  0.101999998        -5.62840887E-06
  0.102300003        -5.44995419E-06
  0.102600001        -5.27413295E-06
  0.102899998        -5.10252448E-06
  0.103200004        -4.93656853E-06
  0.103500001        -4.77751428E-06
  0.103799999        -4.62638718E-06
  0.104099996        -4.48397577E-06
  0.104400001        -4.35083484E-06
  0.104699999        -4.22731273E-06
  0.104999997        -4.11358769E-06
  0.105300002        -4.00971794E-06
  0.105599999        -3.91569120E-06
  0.105899997        -3.83147426E-06
  0.106200002        -3.75704712E-06
  0.106500000        -3.69242503E-06
  0.106799997        -3.63766253E-06
  0.107100002        -3.59283717E-06
  0.107400000        -3.55801808E-06
  0.107699998        -3.53322207E-06
  0.108000003        -3.51836161E-06
  0.108300000        -3.51319591E-06
  0.108599998        -3.51728590E-06
  0.108900003        -3.52996381E-06
  0.109200001        -3.55031966E-06
  0.109499998        -3.57720637E-06
  0.109800003        -3.60926470E-06
  0.110100001        -3.64496532E-06
  0.110399999        -3.68266251E-06
  0.110699996        -3.72065392E-06
  0.111000001        -3.75724130E-06
  0.111299999        -3.79078324E-06
  0.111599997        -3.81973587E-06
  0.111900002        -3.84267787E-06
  0.112199999        -3.85831845E-06
  0.112499997        -3.86548345E-06
  0.112800002        -3.86309421E-06
  0.113100000        -3.85012891E-06
  0.113399997        -3.82558301E-06
  0.113700002        -3.78843015E-06
  0.114000000        -3.73759190E-06
  0.114299998        -3.67191751E-06
  0.114600003        -3.59018190E-06
  0.114900000        -3.49109769E-06
  0.115199998        -3.37334654E-06
  0.115500003        -3.23562040E-06
  0.115800001        -3.07667392E-06
  0.116099998        -2.89537888E-06
  0.116400003        -2.69077600E-06
  0.116700001        -2.46211857E-06
  0.116999999        -2.20890388E-06
  0.117299996        -1.93088704E-06
  0.117600001        -1.62808124E-06
  0.117899999        -1.30073818E-06
  0.118199997        -9.49318292E-07
  0.118500002        -5.74450439E-07
  0.118799999        -1.76888079E-07
  0.119099997         2.42533105E-07
  0.119400002         6.82930533E-07
  0.119700000         1.14339969E-06
  0.119999997         1.62302479E-06
  0.120300002         2.12087571E-06
  0.120600000         2.63598986E-06
  0.120899998         3.16734440E-06
  0.121200003         3.71381975E-06
  0.121500000         4.27416080E-06
  0.121799998         4.84694237E-06
  0.122100003         5.43054057E-06
  0.122400001         6.02311593E-06
  0.122699998         6.62261391E-06
  0.123000003         7.22677532E-06
  0.123300001         7.83316773E-06
  0.123599999         8.43922589E-06
  0.123899996         9.04229728E-06
  0.124200001         9.63969978E-06
  0.124499999         1.02287695E-05
  0.124799997         1.08069053E-05
  0.125100002         1.13716033E-05
  0.125400007         1.19204751E-05
  0.125699997         1.24512544E-05
  0.126000002         1.29617829E-05
  0.126300007         1.34499960E-05
  0.126599997         1.39138847E-05
  0.126900002         1.43514671E-05
  0.127200007         1.47607579E-05
  0.127499998         1.51397426E-05
  0.127800003         1.54863665E-05
  0.128099993         1.57985342E-05
  0.128399998         1.60741292E-05
  0.128700003         1.63110453E-05
  0.128999993         1.65072270E-05
  0.129299998         1.66607279E-05
  0.129600003         1.67697472E-05
  0.129899994         1.68327006E-05
  0.130199999         1.68482420E-05
  0.130500004         1.68153019E-05
  0.130799994         1.67330945E-05
  0.131099999         1.66011141E-05
  0.131400004         1.64191133E-05
  0.131699994         1.61870703E-05
  0.131999999         1.59051524E-05
  0.132300004         1.55736689E-05
  0.132599995         1.51930344E-05
  0.132900000         1.47637356E-05
  0.133200005         1.42863219E-05
  0.133499995         1.37613952E-05
  0.133800000         1.31896295E-05
  0.134100005         1.25717943E-05
  0.134399995         1.19087972E-05
  0.134700000         1.12017206E-05
  0.135000005         1.04518649E-05
  0.135299996         9.66078733E-06
  0.135600001         8.83031771E-06
  0.135900006         7.96257245E-06
  0.136199996         7.05994489E-06
  0.136500001         6.12507665E-06
  0.136800006         5.16082218E-06
  0.137099996         4.17019828E-06
  0.137400001         3.15632951E-06
  0.137700006         2.12239911E-06
  0.137999997         1.07160190E-06
  0.138300002         7.11253456E-09
  0.138600007        -1.06793414E-06
  0.138899997        -2.15044543E-06
  0.139200002        -3.23735981E-06
  0.139500007        -4.32562365E-06
  0.139799997        -5.41216150E-06
  0.140100002        -6.49384538E-06
  0.140400007        -7.56746567E-06
  0.140699998        -8.62971410E-06
  0.141000003        -9.67717642E-06
  0.141299993        -1.07063433E-05
  0.141599998        -1.17136333E-05
  0.141900003        -1.26954310E-05
  0.142199993        -1.36481349E-05
  0.142499998        -1.45682061E-05
  0.142800003        -1.54522277E-05
  0.143099993        -1.62969482E-05
  0.143399999        -1.70993153E-05
  0.143700004        -1.78565078E-05
  0.143999994        -1.85659428E-05
  0.144299999        -1.92252737E-05
  0.144600004        -1.98323687E-05
  0.144899994        -2.03852978E-05
  0.145199999        -2.08822967E-05
  0.145500004        -2.13217445E-05
  0.145799994        -2.17021388E-05
  0.146100000        -2.20220863E-05
  0.146400005        -2.22802973E-05
  0.146699995        -2.24755986E-05
  0.147000000        -2.26069533E-05
  0.147300005        -2.26734846E-05
  0.147599995        -2.26745233E-05
  0.147900000        -2.26096290E-05
  0.148200005        -2.24786363E-05
  0.148499995        -2.22816780E-05
  0.148800001        -2.20191941E-05
  0.149100006        -2.16919525E-05
  0.149399996        -2.13010353E-05
  0.149700001        -2.08478232E-05
  0.150000006        -2.03339714E-05
  0.150299996        -1.97613790E-05
  0.150600001        -1.91321560E-05
  0.150900006        -1.84485871E-05
  0.151199996        -1.77131042E-05
  0.151500002        -1.69282685E-05
  0.151800007        -1.60967484E-05
  0.152099997        -1.52213161E-05
  0.152400002        -1.43048537E-05
  0.152700007        -1.33503536E-05
  0.152999997        -1.23609361E-05
  0.153300002        -1.13398610E-05
  0.153600007        -1.02905387E-05
  0.153899997        -9.21653645E-06
  0.154200003        -8.12157850E-06
  0.154499993        -7.00954160E-06
  0.154799998        -5.88443163E-06
  0.155100003        -4.75036450E-06
  0.155399993        -3.61152979E-06
  0.155699998        -2.47215530E-06
  0.156000003        -1.33646540E-06
  0.156299993        -2.08641922E-07
  0.156599998         9.07213462E-07
  0.156900004         2.00711020E-06
  0.157199994         3.08719314E-06
  0.157499999         4.14375791E-06
  0.157800004         5.17325861E-06
  0.158099994         6.17230671E-06
  0.158399999         7.13766485E-06
  0.158700004         8.06623757E-06
  0.158999994         8.95505855E-06
  0.159299999         9.80128698E-06
  0.159600005         1.06021953E-05
  0.159899995         1.13551823E-05
  0.160200000         1.20577779E-05
  0.160500005         1.27076601E-05
  0.160799995         1.33026888E-05
  0.161100000         1.38409268E-05
  0.161400005         1.43206826E-05
  0.161699995         1.47405326E-05
  0.162000000         1.50993583E-05
  0.162300006         1.53963574E-05
  0.162599996         1.56310653E-05
  0.162900001         1.58033417E-05
  0.163200006         1.59133760E-05
  0.163499996         1.59616575E-05
  0.163800001         1.59489464E-05
  0.164100006         1.58762541E-05
  0.164399996         1.57448012E-05
  0.164700001         1.55559956E-05
  0.165000007         1.53114051E-05
  0.165299997         1.50127489E-05
  0.165600002         1.46618868E-05
  0.165900007         1.42608287E-05
  0.166199997         1.38117384E-05
  0.166500002         1.33169551E-05
  0.166800007         1.27790045E-05
  0.167099997         1.22006131E-05
  0.167400002         1.15847142E-05
  0.167699993         1.09344473E-05
  0.167999998         1.02531449E-05
  0.168300003         9.54430652E-06
  0.168599993         8.81157121E-06
  0.168899998         8.05867148E-06
  0.169200003         7.28939085E-06
  0.169499993         6.50752054E-06
  0.169799998         5.71681403E-06
  0.170100003         4.92095614E-06
  0.170399994         4.12353438E-06
  0.170699999         3.32802415E-06
  0.171000004         2.53778308E-06
  0.171299994         1.75605498E-06
  0.171599999         9.85978886E-07
  0.171900004         2.30600634E-07
  0.172199994        -5.07114521E-07
  0.172499999        -1.22427502E-06
  0.172800004        -1.91806225E-06
  0.173099995        -2.58573755E-06
  0.173400000        -3.22465939E-06
  0.173700005        -3.83230781E-06
  0.173999995        -4.40631311E-06
  0.174300000        -4.94449250E-06
  0.174600005        -5.44487966E-06
  0.174899995        -5.90575564E-06
  0.175200000        -6.32567162E-06
  0.175500005        -6.70346162E-06
  0.175799996        -7.03824617E-06
  0.176100001        -7.32942635E-06
  0.176400006        -7.57666794E-06
  0.176699996        -7.77988043E-06
  0.177000001        -7.93919207E-06
  0.177300006        -8.05492346E-06
  0.177599996        -8.12756480E-06
  0.177900001        -8.15775638E-06
  0.178200006        -8.14628038E-06
  0.178499997        -8.09405174E-06
  0.178800002        -8.00212092E-06
  0.179100007        -7.87168301E-06
  0.179399997        -7.70408406E-06
  0.179700002        -7.50083473E-06
  0.180000007        -7.26361668E-06
  0.180299997        -6.99428801E-06
  0.180600002        -6.69487872E-06
  0.180899993        -6.36758614E-06
  0.181199998        -6.01475449E-06
  0.181500003        -5.63885715E-06
  0.181799993        -5.24246479E-06
  0.182099998        -4.82821997E-06
  0.182400003        -4.39880159E-06
  0.182699993        -3.95689949E-06