  -5.99999987E-02     0.00000000    
  -5.97000010E-02    -7.35208335E-12
  -5.93999997E-02    -2.40439682E-11
  -5.90999983E-02    -5.27395419E-11
  -5.88000007E-02    -9.59027233E-11
  -5.84999993E-02    -1.54621246E-10
  -5.82000017E-02    -2.27387942E-10
  -5.79000004E-02    -3.09129278E-10
  -5.75999990E-02    -3.90745408E-10
  -5.73000014E-02    -4.59344784E-10
  -5.70000000E-02    -4.99233543E-10
  -5.66999987E-02    -4.93576957E-10
  -5.64000010E-02    -4.26515379E-10
  -5.60999997E-02    -2.85411084E-10
  -5.57999983E-02    -6.28535834E-11
  -5.55000007E-02     2.41936970E-10
  -5.51999994E-02     6.22590146E-10
  -5.49000017E-02     1.06610032E-09
  -5.46000004E-02     1.55436419E-09
  -5.42999990E-02     2.06656092E-09
  -5.40000014E-02     2.58205302E-09
  -5.37000000E-02     3.08339376E-09
  -5.33999987E-02     3.55899932E-09
  -5.31000011E-02     4.00509270E-09
  -5.27999997E-02     4.42663994E-09
  -5.24999984E-02     4.83715956E-09
  -5.22000007E-02     5.25746291E-09
  -5.18999994E-02     5.71357051E-09
  -5.16000018E-02     6.23415408E-09
  -5.13000004E-02     6.84795820E-09
  -5.09999990E-02     7.58161978E-09
  -5.07000014E-02     8.45824477E-09
  -5.04000001E-02     9.49695433E-09
  -5.00999987E-02     1.07134408E-08
  -4.98000011E-02     1.21213839E-08
  -4.94999997E-02     1.37344287E-08
  -4.91999984E-02     1.55683324E-08
  -4.89000008E-02     1.76428365E-08
  -4.85999994E-02     1.99828989E-08
  -4.83000018E-02     2.26190142E-08
  -4.80000004E-02     2.55865462E-08
  -4.76999991E-02     2.89241981E-08
  -4.74000014E-02     3.26718848E-08
  -4.71000001E-02     3.68684532E-08
  -4.67999987E-02     4.15497716E-08
  -4.65000011E-02     4.67476085E-08
  -4.61999997E-02     5.24897565E-08
  -4.58999984E-02     5.88015077E-08
  -4.56000008E-02     6.57085337E-08
  -4.52999994E-02     7.32408836E-08
  -4.50000018E-02     8.14376406E-08
  -4.47000004E-02     9.03516622E-08
  -4.43999991E-02     1.00053747E-07
  -4.41000015E-02     1.10635646E-07
  -4.38000001E-02     1.22211446E-07
  -4.34999987E-02     1.34917045E-07
  -4.32000011E-02     1.48907844E-07
  -4.28999998E-02     1.64354816E-07
  -4.25999984E-02     1.81439447E-07
  -4.23000008E-02     2.00348452E-07
  -4.19999994E-02     2.21268593E-07
  -4.17000018E-02     2.44382761E-07
  -4.14000005E-02     2.69867485E-07
  -4.10999991E-02     2.97892541E-07
  -4.08000015E-02     3.28622491E-07
  -4.05000001E-02     3.62220135E-07
  -4.01999988E-02     3.98851540E-07
  -3.99000011E-02     4.38691785E-07
  -3.95999998E-02     4.81931011E-07
  -3.92999984E-02     5.28779879E-07
  -3.90000008E-02     5.79474090E-07
  -3.86999995E-02     6.34277171E-07
  -3.84000018E-02     6.93481866E-07
  -3.81000005E-02     7.57409566E-07
  -3.77999991E-02     8.26408154E-07
  -3.75000015E-02     9.00849159E-07
  -3.72000001E-02     9.81124003E-07
  -3.68999988E-02     1.06763991E-06
  -3.66000012E-02     1.16081696E-06
  -3.62999998E-02     1.26108455E-06
  -3.59999985E-02     1.36888025E-06
  -3.57000008E-02     1.48464846E-06
  -3.53999995E-02     1.60884088E-06
  -3.51000018E-02     1.74191644E-06
  -3.48000005E-02     1.88434319E-06
  -3.44999991E-02     2.03659920E-06
  -3.42000015E-02     2.19917365E-06
  -3.39000002E-02     2.37256745E-06
  -3.35999988E-02     2.55729265E-06
  -3.33000012E-02     2.75387310E-06
  -3.29999998E-02     2.96284088E-06
  -3.26999985E-02     3.18473576E-06
  -3.24000008E-02     3.42010139E-06
  -3.20999995E-02     3.66948166E-06
  -3.18000019E-02     3.93341725E-06
  -3.15000005E-02     4.21244113E-06
  -3.11999992E-02     4.50707330E-06
  -3.08999997E-02     4.81781808E-06
  -3.06000002E-02     5.14515705E-06
  -3.03000007E-02     5.48954495E-06
  -2.99999993E-02     5.85140697E-06
  -2.96999998E-02     6.23113237E-06
  -2.94000003E-02     6.62907178E-06
  -2.91000009E-02     7.04553258E-06
  -2.87999995E-02     7.48077628E-06
  -2.85000000E-02     7.93501567E-06
  -2.82000005E-02     8.40841130E-06
  -2.78999992E-02     8.90106548E-06
  -2.75999997E-02     9.41302460E-06
  -2.73000002E-02     9.94426864E-06
  -2.70000007E-02     1.04947103E-05
  -2.66999993E-02     1.10641859E-05
  -2.63999999E-02     1.16524507E-05
  -2.61000004E-02     1.22591719E-05
  -2.58000009E-02     1.28839165E-05
  -2.54999995E-02     1.35261480E-05
  -2.52000000E-02     1.41852142E-05
  -2.49000005E-02     1.48603422E-05
  -2.45999992E-02     1.55506295E-05
  -2.42999997E-02     1.62550441E-05
  -2.40000002E-02     1.69724117E-05
  -2.37000007E-02     1.77014244E-05
  -2.33999994E-02     1.84406326E-05
  -2.30999999E-02     1.91884465E-05
  -2.28000004E-02     1.99431397E-05
  -2.25000009E-02     2.07028479E-05
  -2.21999995E-02     2.14655720E-05
  -2.19000001E-02     2.22291710E-05
  -2.16000006E-02     2.29913767E-05
  -2.12999992E-02     2.37497716E-05
  -2.09999997E-02     2.45018055E-05
  -2.07000002E-02     2.52447826E-05
  -2.04000007E-02     2.59758617E-05
  -2.00999994E-02     2.66920615E-05
  -1.97999999E-02     2.73902551E-05
  -1.95000004E-02     2.80671793E-05
  -1.92000009E-02     2.87194434E-05
  -1.88999996E-02     2.93435314E-05
  -1.86000001E-02     2.99358253E-05
  -1.83000006E-02     3.04926125E-05
  -1.79999992E-02     3.10101095E-05
  -1.76999997E-02     3.14844729E-05
  -1.74000002E-02     3.19118371E-05
  -1.71000008E-02     3.22883061E-05
  -1.67999994E-02     3.26099980E-05
  -1.64999999E-02     3.28730493E-05
  -1.62000004E-02     3.30736257E-05
  -1.59000009E-02     3.32079617E-05
  -1.55999996E-02     3.32723430E-05
  -1.53000001E-02     3.32631462E-05
  -1.49999997E-02     3.31768424E-05
  -1.47000002E-02     3.30100156E-05
  -1.43999998E-02     3.27593843E-05
  -1.41000003E-02     3.24218054E-05
  -1.37999998E-02     3.19943210E-05
  -1.35000004E-02     3.14741555E-05
  -1.31999999E-02     3.08587587E-05
  -1.29000004E-02     3.01458258E-05
  -1.26000000E-02     2.93333178E-05
  -1.22999996E-02     2.84195030E-05
  -1.20000001E-02     2.74029608E-05
  -1.16999997E-02     2.62826270E-05
  -1.14000002E-02     2.50578014E-05
  -1.10999998E-02     2.37281711E-05
  -1.08000003E-02     2.22938270E-05
  -1.04999999E-02     2.07552785E-05
  -1.02000004E-02     1.91134659E-05
  -9.89999995E-03     1.73697645E-05
  -9.60000046E-03     1.55259986E-05
  -9.30000003E-03     1.35844393E-05
  -8.99999961E-03     1.15478133E-05
  -8.70000012E-03     9.41930284E-06
  -8.39999970E-03     7.20254639E-06
  -8.10000021E-03     4.90163757E-06
  -7.79999979E-03     2.52112386E-06
  -7.49999983E-03     6.59998776E-08
  -7.19999988E-03    -2.45829824E-06
  -6.89999992E-03    -5.04590253E-06
  -6.59999996E-03    -7.69052531E-06
  -6.30000001E-03    -1.03854745E-05
  -6.00000005E-03    -1.31236748E-05
  -5.70000010E-03    -1.58976854E-05
  -5.40000014E-03    -1.86997277E-05
  -5.10000018E-03    -2.15217151E-05
  -4.80000023E-03    -2.43552822E-05
  -4.49999981E-03    -2.71918234E-05
  -4.19999985E-03    -3.00225183E-05
  -3.89999989E-03    -3.28383830E-05
  -3.59999994E-03    -3.56302990E-05
  -3.29999998E-03    -3.83890583E-05
  -3.00000003E-03    -4.11053989E-05
  -2.70000007E-03    -4.37700546E-05
  -2.40000011E-03    -4.63737852E-05
  -2.09999993E-03    -4.89074300E-05
  -1.79999997E-03    -5.13619343E-05
  -1.50000001E-03    -5.37284068E-05
  -1.20000006E-03    -5.59981381E-05
  -8.99999985E-04    -5.81626737E-05
  -6.00000028E-04    -6.02138280E-05
  -3.00000014E-04    -6.21437357E-05
   0.00000000        -6.39448990E-05
   3.00000014E-04    -6.56102129E-05
   6.00000028E-04    -6.71330199E-05
   8.99999985E-04    -6.85071500E-05
   1.20000006E-03    -6.97269425E-05
   1.50000001E-03    -7.07872896E-05
   1.79999997E-03    -7.16836657E-05
   2.09999993E-03    -7.24121564E-05
   2.40000011E-03    -7.29694875E-05
   2.70000007E-03    -7.33530396E-05
   3.00000003E-03    -7.35608628E-05
   3.29999998E-03    -7.35916910E-05
   3.59999994E-03    -7.34449568E-05
   3.89999989E-03    -7.31207838E-05
   4.19999985E-03    -7.26199869E-05
   4.49999981E-03    -7.19440868E-05
   4.80000023E-03    -7.10952663E-05
   5.10000018E-03    -7.00763994E-05
   5.40000014E-03    -6.88910222E-05
   5.70000010E-03    -6.75432966E-05
   6.00000005E-03    -6.60380319E-05
   6.30000001E-03    -6.43806270E-05
   6.59999996E-03    -6.25770772E-05
   6.89999992E-03    -6.06339236E-05
   7.19999988E-03    -5.85582347E-05
   7.49999983E-03    -5.63575741E-05
   7.79999979E-03    -5.40399633E-05
   8.10000021E-03    -5.16138389E-05
   8.39999970E-03    -4.90880193E-05
   8.70000012E-03    -4.64716541E-05
   8.99999961E-03    -4.37741764E-05
   9.30000003E-03    -4.10052526E-05
   9.60000046E-03    -3.81747413E-05
   9.89999995E-03    -3.52926218E-05
   1.02000004E-02    -3.23689637E-05
   1.04999999E-02    -2.94138626E-05
   1.08000003E-02    -2.64373957E-05
   1.10999998E-02    -2.34495674E-05
   1.14000002E-02    -2.04602693E-05
   1.16999997E-02    -1.74792367E-05
   1.20000001E-02    -1.45159993E-05
   1.22999996E-02    -1.15798539E-05
   1.26000000E-02    -8.67981908E-06
   1.29000004E-02    -5.82460416E-06
   1.31999999E-02    -3.02257581E-06
   1.35000004E-02    -2.81726585E-07
   1.37999998E-02     2.39035421E-06
   1.41000003E-02     4.98650934E-06
   1.43999998E-02     7.50004119E-06
   1.47000002E-02     9.92473451E-06
   1.49999997E-02     1.22548799E-05
   1.53000001E-02     1.44852966E-05
   1.55999996E-02     1.66113423E-05
   1.59000009E-02     1.86289290E-05
   1.62000004E-02     2.05345350E-05
   1.64999999E-02     2.23252009E-05
   1.67999994E-02     2.39985366E-05
   1.71000008E-02     2.55527120E-05
   1.74000002E-02     2.69864468E-05
   1.76999997E-02     2.82990059E-05
   1.79999992E-02     2.94901729E-05
   1.83000006E-02     3.05602443E-05
   1.86000001E-02     3.15099969E-05
   1.88999996E-02     3.23406821E-05
   1.92000009E-02     3.30539915E-05
   1.95000004E-02     3.36520388E-05
   1.97999999E-02     3.41373307E-05
   2.00999994E-02     3.45127482E-05
   2.04000007E-02     3.47815258E-05
   2.07000002E-02     3.49472029E-05
   2.09999997E-02     3.50136143E-05
   2.12999992E-02     3.49848488E-05
   2.16000006E-02     3.48652320E-05
   2.19000001E-02     3.46592715E-05
   2.21999995E-02     3.43716347E-05
   2.25000009E-02     3.40071238E-05
   2.28000004E-02     3.35706209E-05
   2.30999999E-02     3.30670700E-05
   2.33999994E-02     3.25014480E-05
   2.37000007E-02     3.18787170E-05
   2.40000002E-02     3.12038137E-05
   2.42999997E-02     3.04816076E-05
   2.45999992E-02     2.97168917E-05
   2.49000005E-02     2.89143481E-05
   2.52000000E-02     2.80785334E-05
   2.54999995E-02     2.72138586E-05
   2.58000009E-02     2.63245729E-05
   2.61000004E-02     2.54147435E-05
   2.63999999E-02     2.44882540E-05
   2.66999993E-02     2.35487751E-05
   2.70000007E-02     2.25997737E-05
   2.73000002E-02     2.16444914E-05
   2.75999997E-02     2.06859440E-05
   2.78999992E-02     1.97269164E-05
   2.82000005E-02     1.87699661E-05
   2.85000000E-02     1.78174178E-05
   2.87999995E-02     1.68713686E-05
   2.91000009E-02     1.59336905E-05
   2.94000003E-02     1.50060441E-05
   2.96999998E-02     1.40898755E-05
   2.99999993E-02     1.31864326E-05
   3.03000007E-02     1.22967713E-05
   3.06000002E-02     1.14217655E-05
   3.08999997E-02     1.05621239E-05
   3.11999992E-02     9.71839381E-06
   3.15000005E-02     8.89098465E-06
   3.18000019E-02     8.08017467E-06
   3.20999995E-02     7.28612986E-06
   3.24000008E-02     6.50892207E-06
   3.26999985E-02     5.74854130E-06
   3.29999998E-02     5.00491660E-06
   3.33000012E-02     4.27793157E-06
   3.35999988E-02     3.56744158E-06
   3.39000002E-02     2.87328817E-06
   3.42000015E-02     2.19531398E-06
   3.44999991E-02     1.53337612E-06
   3.48000005E-02     8.87357032E-07
   3.51000018E-02     2.57174236E-07
   3.53999995E-02    -3.57210922E-07
   3.57000008E-02    -9.55786277E-07
   3.59999985E-02    -1.53848214E-06
   3.62999998E-02    -2.10516691E-06
   3.66000012E-02    -2.65564086E-06
   3.68999988E-02    -3.18963362E-06
   3.72000001E-02    -3.70680004E-06
   3.75000015E-02    -4.20671768E-06
   3.77999991E-02    -4.68888584E-06
   3.81000005E-02    -5.15272586E-06
   3.84000018E-02    -5.59758200E-06
   3.86999995E-02    -6.02272621E-06
   3.90000008E-02    -6.42736268E-06
   3.92999984E-02    -6.81063557E-06
   3.95999998E-02    -7.17163721E-06
   3.99000011E-02    -7.50942081E-06
   4.01999988E-02    -7.82300958E-06
   4.05000001E-02    -8.11141126E-06
   4.08000015E-02    -8.37362950E-06
   4.10999991E-02    -8.60867749E-06
   4.14000005E-02    -8.81559117E-06
   4.17000018E-02    -8.99344013E-06
   4.19999994E-02    -9.14134398E-06
   4.23000008E-02    -9.25847871E-06
   4.25999984E-02    -9.34409582E-06
   4.28999998E-02    -9.39752954E-06
   4.32000011E-02    -9.41820963E-06
   4.34999987E-02    -9.40567679E-06
   4.38000001E-02    -9.35959088E-06
   4.41000015E-02    -9.27974361E-06
   4.43999991E-02    -9.16606768E-06
   4.47000004E-02    -9.01864769E-06
   4.50000018E-02    -8.83772827E-06
   4.52999994E-02    -8.62371417E-06
   4.56000008E-02    -8.37718198E-06
   4.58999984E-02    -8.09887388E-06
   4.61999997E-02    -7.78970389E-06
   4.65000011E-02    -7.45075295E-06
   4.67999987E-02    -7.08326615E-06
   4.71000001E-02    -6.68865096E-06
   4.74000014E-02    -6.26847304E-06
   4.76999991E-02    -5.82445000E-06
   4.80000004E-02    -5.35844856E-06
   4.83000018E-02    -4.87248008E-06
   4.85999994E-02    -4.36869186E-06
   4.89000008E-02    -3.84936266E-06
   4.91999984E-02    -3.31689239E-06
   4.94999997E-02    -2.77379331E-06
   4.98000011E-02    -2.22267522E-06
   5.00999987E-02    -1.66623204E-06
   5.04000001E-02    -1.10722317E-06
   5.07000014E-02    -5.48455830E-07
   5.09999990E-02     7.23621385E-09
   5.13000004E-02     5.57012811E-07
   5.16000018E-02     1.09804819E-06
   5.18999994E-02     1.62755066E-06
   5.22000007E-02     2.14278134E-06
   5.24999984E-02     2.64107030E-06
   5.27999997E-02     3.11983194E-06
   5.31000011E-02     3.57657791E-06
   5.33999987E-02     4.00892941E-06
   5.37000000E-02     4.41462726E-06
   5.40000014E-02     4.79154460E-06
   5.42999990E-02     5.13769601E-06
   5.46000004E-02     5.45124885E-06
   5.49000017E-02     5.73053603E-06
   5.51999994E-02     5.97406870E-06
   5.55000007E-02     6.18054764E-06
   5.57999983E-02     6.34887601E-06
   5.60999997E-02     6.47817069E-06
   5.64000010E-02     6.56777183E-06
   5.66999987E-02     6.61725062E-06
   5.70000000E-02     6.62641332E-06
   5.73000014E-02     6.59530406E-06
   5.75999990E-02     6.52420295E-06
   5.79000004E-02     6.41362340E-06
   5.82000017E-02     6.26430710E-06
   5.84999993E-02     6.07721495E-06
   5.88000007E-02     5.85352063E-06
   5.90999983E-02     5.59460159E-06
   5.93999997E-02     5.30202851E-06
   5.97000010E-02     4.97756037E-06
   5.99999987E-02     4.62313164E-06
   6.03000000E-02     4.24084692E-06
   6.06000014E-02     3.83297129E-06
   6.08999990E-02     3.40191991E-06
   6.12000003E-02     2.95024824E-06
   6.15000017E-02     2.48063975E-06
   6.17999993E-02     1.99589249E-06
   6.21000007E-02     1.49890377E-06
   6.23999983E-02     9.92652986E-07
   6.27000034E-02     4.80183473E-07
   6.30000010E-02    -3.54159049E-08
   6.32999986E-02    -5.51030780E-07
   6.36000037E-02    -1.06354037E-06
   6.39000013E-02    -1.56983617E-06
   6.41999990E-02    -2.06684035E-06
   6.44999966E-02    -2.55152281E-06
   6.48000017E-02    -3.02091689E-06
   6.50999993E-02    -3.47213404E-06
   6.53999969E-02    -3.90237756E-06
   6.57000020E-02    -4.30895670E-06
   6.59999996E-02    -4.68929511E-06
   6.62999973E-02    -5.04094669E-06
   6.66000023E-02    -5.36160042E-06
   6.69000000E-02    -5.64909624E-06
   6.71999976E-02    -5.90142827E-06
   6.75000027E-02    -6.11675750E-06
   6.78000003E-02    -6.29341821E-06
   6.80999979E-02    -6.42992609E-06
   6.84000030E-02    -6.52498420E-06
   6.87000006E-02    -6.57748978E-06
   6.89999983E-02    -6.58654290E-06
   6.93000033E-02    -6.55144868E-06
   6.96000010E-02    -6.47172510E-06
   6.98999986E-02    -6.34710796E-06
   7.02000037E-02    -6.17755404E-06
   7.05000013E-02    -5.96324344E-06
   7.07999989E-02    -5.70458360E-06
   7.10999966E-02    -5.40220663E-06
   7.14000016E-02    -5.05696744E-06
   7.16999993E-02    -4.66994061E-06
   7.19999969E-02    -4.24241216E-06
   7.23000020E-02    -3.77587230E-06
   7.25999996E-02    -3.27200428E-06
   7.28999972E-02    -2.73267324E-06
   7.32000023E-02    -2.15991463E-06
   7.34999999E-02    -1.55592261E-06
   7.37999976E-02    -9.23037931E-07
   7.41000026E-02    -2.63738343E-07
   7.44000003E-02     4.19370991E-07
   7.46999979E-02     1.12356543E-06
   7.50000030E-02     1.84600810E-06
   7.53000006E-02     2.58375735E-06
   7.55999982E-02     3.33377329E-06
   7.59000033E-02     4.09292670E-06
   7.62000009E-02     4.85800865E-06
   7.64999986E-02     5.62574178E-06
   7.68000036E-02     6.39279460E-06
   7.71000013E-02     7.15579699E-06
   7.73999989E-02     7.91135881E-06
   7.76999965E-02     8.65608672E-06
   7.80000016E-02     9.38660651E-06
   7.82999992E-02     1.00995831E-05
   7.85999969E-02     1.07917331E-05
   7.89000019E-02     1.14598488E-05
   7.91999996E-02     1.21008106E-05
   7.94999972E-02     1.27115991E-05
   7.98000023E-02     1.32893074E-05
   8.00999999E-02     1.38311516E-05
   8.03999975E-02     1.43344760E-05
   8.07000026E-02     1.47967694E-05
   8.10000002E-02     1.52156636E-05
   8.12999979E-02     1.55889502E-05
   8.16000029E-02     1.59145911E-05
   8.19000006E-02     1.61907246E-05
   8.21999982E-02     1.64156809E-05
   8.25000033E-02     1.65879956E-05
   8.28000009E-02     1.67064209E-05
   8.30999985E-02     1.67699345E-05
   8.34000036E-02     1.67777580E-05
   8.37000012E-02     1.67293547E-05
   8.39999989E-02     1.66244408E-05
   8.42999965E-02     1.64629873E-05
   8.46000016E-02     1.62452234E-05
   8.48999992E-02     1.59716310E-05
   8.51999968E-02     1.56429487E-05
   8.55000019E-02     1.52601569E-05
   8.57999995E-02     1.48244872E-05
   8.60999972E-02     1.43374027E-05
   8.64000022E-02     1.38006035E-05
   8.66999999E-02     1.32160167E-05
   8.69999975E-02     1.25857905E-05
   8.73000026E-02     1.19122878E-05
   8.76000002E-02     1.11980844E-05
   8.78999978E-02     1.04459550E-05
   8.82000029E-02     9.65886557E-06
   8.85000005E-02     8.83996654E-06
   8.87999982E-02     7.99257487E-06
   8.91000032E-02     7.12016572E-06
   8.94000009E-02     6.22634980E-06
   8.96999985E-02     5.31486103E-06
   9.00000036E-02     4.38953657E-06
   9.03000012E-02     3.45429635E-06
   9.05999988E-02     2.51312463E-06
   9.08999965E-02     1.57004797E-06
   9.12000015E-02     6.29115959E-07
   9.14999992E-02    -3.05621086E-07
   9.17999968E-02    -1.23013172E-06
   9.21000019E-02    -2.14042439E-06
   9.23999995E-02    -3.03256843E-06
   9.26999971E-02    -3.90271362E-06
   9.30000022E-02    -4.74710987E-06
   9.32999998E-02    -5.56212763E-06
   9.35999975E-02    -6.34427533E-06
   9.39000025E-02    -7.09021742E-06
   9.42000002E-02    -7.79679158E-06
   9.44999978E-02    -8.46102284E-06
   9.48000029E-02    -9.08013772E-06
   9.51000005E-02    -9.65158051E-06
   9.53999981E-02    -1.01730202E-05
   9.57000032E-02    -1.06423668E-05
   9.60000008E-02    -1.10577757E-05
   9.62999985E-02    -1.14176637E-05
   9.66000035E-02    -1.17207128E-05
   9.69000012E-02    -1.19658798E-05
   9.71999988E-02    -1.21524072E-05
   9.74999964E-02    -1.22798210E-05
   9.78000015E-02    -1.23479431E-05
   9.80999991E-02    -1.23568898E-05
   9.83999968E-02    -1.23070731E-05
   9.87000018E-02    -1.21991998E-05
   9.89999995E-02    -1.20342620E-05
   9.92999971E-02    -1.18135349E-05
   9.96000022E-02    -1.15385646E-05
   9.98999998E-02    -1.12111529E-05
  0.100199997        -1.08333497E-05
  0.100500003        -1.04074279E-05
  0.100800000        -9.93587582E-06
  0.101099998        -9.42137649E-06
  0.101400003        -8.86678936E-06
  0.101700000        -8.27513759E-06
  0.101999998        -7.64959168E-06
  0.102300003        -6.99344992E-06
  0.102600001        -6.31012699E-06
  0.102899998        -5.60313629E-06
  0.103200004        -4.87607440E-06
  0.103500001        -4.13260250E-06
  0.103799999        -3.37643178E-06
  0.104099996        -2.61130094E-06
  0.104400001        -1.84095859E-06
  0.104699999        -1.06914229E-06
  0.104999997        -2.99557541E-07
  0.105300002         4.64142602E-07
  0.105599999         1.21837797E-06
  0.105899997         1.95966072E-06
  0.106200002         2.68461372E-06
  0.106500000         3.38998711E-06
  0.106799997         4.07267362E-06
  0.107100002         4.72972306E-06
  0.107400000         5.35835352E-06
  0.107699998         5.95596339E-06
  0.108000003         6.52014069E-06
  0.108300000         7.04867125E-06
  0.108599998         7.53954782E-06
  0.108900003         7.99097506E-06
  0.109200001         8.40137636E-06
  0.109499998         8.76939794E-06
  0.109800003         9.09391110E-06
  0.110100001         9.37401455E-06
  0.110399999         9.60903617E-06
  0.110699996         9.79852848E-06
  0.111000001         9.94226775E-06
  0.111299999         1.00402476E-05
  0.111599997         1.00926773E-05
  0.111900002         1.00999678E-05
  0.112199999         1.00627294E-05
  0.112499997         9.98176165E-06
  0.112800002         9.85804490E-06
  0.113100000         9.69272787E-06
  0.113399997         9.48712477E-06
  0.113700002         9.24269898E-06
  0.114000000         8.96105848E-06
  0.114299998         8.64394497E-06
  0.114600003         8.29322380E-06
  0.114900000         7.91087314E-06
  0.115199998         7.49897299E-06
  0.115500003         7.05969569E-06
  0.115800001         6.59529087E-06
  0.116099998         6.10807592E-06
  0.116400003         5.60041917E-06
  0.116700001         5.07472987E-06
  0.116999999         4.53344410E-06
  0.117299996         3.97901067E-06
  0.117600001         3.41387931E-06
  0.117899999         2.84048861E-06
  0.118199997         2.26125576E-06
  0.118500002         1.67856501E-06
  0.118799999         1.09475889E-06
  0.119099997         5.12129361E-07
  0.119400002        -6.70898501E-08
  0.119700000        -6.40731287E-07
  0.119999997        -1.20670040E-06
  0.120300002        -1.76298261E-06
  0.120600000        -2.30764954E-06
  0.120899998        -2.83886516E-06
  0.121200003        -3.35489199E-06
  0.121500000        -3.85409612E-06
  0.121799998        -4.33495279E-06
  0.122100003        -4.79604887E-06
  0.122400001        -5.23608787E-06
  0.122699998        -5.65389109E-06
  0.123000003        -6.04839897E-06
  0.123300001        -6.41867200E-06
  0.123599999        -6.76388754E-06
  0.123899996        -7.08334210E-06
  0.124200001        -7.37644359E-06
  0.124499999        -7.64271408E-06
  0.124799997        -7.88178386E-06
  0.125100002        -8.09338781E-06
  0.125400007        -8.27736403E-06
  0.125699997        -8.43365251E-06
  0.126000002        -8.56229144E-06
  0.126300007        -8.66341361E-06
  0.126599997        -8.73724821E-06
  0.126900002        -8.78411720E-06
  0.127200007        -8.80443349E-06
  0.127499998        -8.79869458E-06
  0.127800003        -8.76748527E-06
  0.128099993        -8.71146767E-06
  0.128399998        -8.63137939E-06
  0.128700003        -8.52802259E-06
  0.128999993        -8.40226130E-06
  0.129299998        -8.25501138E-06
  0.129600003        -8.08723144E-06
  0.129899994        -7.89991736E-06
  0.130199999        -7.69409326E-06
  0.130500004        -7.47080639E-06
  0.130799994        -7.23112180E-06
  0.131099999        -6.97611722E-06
  0.131400004        -6.70688223E-06
  0.131699994        -6.42451596E-06
  0.131999999        -6.13012617E-06
  0.132300004        -5.82483017E-06
  0.132599995        -5.50975301E-06
  0.132900000        -5.18602974E-06
  0.133200005        -4.85480223E-06
  0.133499995        -4.51721826E-06
  0.133800000        -4.17442743E-06
  0.134100005        -3.82757935E-06
  0.134399995        -3.47781634E-06
  0.134700000        -3.12626844E-06
  0.135000005        -2.77404888E-06
  0.135299996        -2.42224678E-06
  0.135600001        -2.07192329E-06
  0.135900006        -1.72410660E-06
  0.136199996        -1.37978998E-06
  0.136500001        -1.03992909E-06
  0.136800006        -7.05442574E-07
  0.137099996        -3.77212586E-07
  0.137400001        -5.60866944E-08
  0.137700006         2.57119694E-07
  0.137999997         5.61620652E-07
  0.138300002         8.56657380E-07
  0.138600007         1.14149623E-06
  0.138899997         1.41542796E-06
  0.139200002         1.67776761E-06
  0.139500007         1.92785592E-06
  0.139799997         2.16506191E-06
  0.140100002         2.38878579E-06
  0.140400007         2.59846388E-06
  0.140699998         2.79357278E-06
  0.141000003         2.97363385E-06
  0.141299993         3.13821829E-06
  0.141599998         3.28695000E-06
  0.141900003         3.41950818E-06
  0.142199993         3.53562950E-06
  0.142499998         3.63510776E-06
  0.142800003         3.71779242E-06
  0.143099993         3.78358823E-06
  0.143399999         3.83245015E-06
  0.143700004         3.86438251E-06
  0.143999994         3.87943464E-06
  0.144299999         3.87769978E-06
  0.144600004         3.85931253E-06
  0.144899994         3.82445023E-06
  0.145199999         3.77333345E-06
  0.145500004         3.70622888E-06
  0.145799994         3.62345372E-06
  0.146100000         3.52537927E-06
  0.146400005         3.41243617E-06
  0.146699995         3.28511896E-06
  0.147000000         3.14398790E-06
  0.147300005         2.98967166E-06
  0.147599995         2.82286624E-06
  0.147900000         2.64433220E-06
  0.148200005         2.45489036E-06
  0.148499995         2.25541498E-06
  0.148800001         2.04682624E-06
  0.149100006         1.83008228E-06
  0.149399996         1.60617060E-06
  0.149700001         1.37610118E-06
  0.150000006         1.14090051E-06
  0.150299996         9.01608018E-07
  0.150600001         6.59272757E-07
  0.150900006         4.14953632E-07
  0.151199996         1.69719314E-07
  0.151500002        -7.53506058E-08
  0.151800007        -3.19164826E-07
  0.152099997        -5.60620663E-07
  0.152400002        -7.98605527E-07
  0.152700007        -1.03200114E-06
  0.152999997        -1.25968882E-06
  0.153300002        -1.48055813E-06
  0.153600007        -1.69351597E-06
  0.153899997        -1.89749733E-06
  0.154200003        -2.09147606E-06
  0.154499993        -2.27447549E-06
  0.154799998        -2.44557623E-06
  0.155100003        -2.60392426E-06
  0.155399993        -2.74873537E-06
  0.155699998        -2.87929674E-06
  0.156000003        -2.99496833E-06
  0.156299993        -3.09518032E-06
  0.156599998        -3.17943159E-06
  0.156900004        -3.24728649E-06
  0.157199994        -3.29837235E-06
  0.157499999        -3.33237790E-06
  0.157800004        -3.34905371E-06
  0.158099994        -3.34821266E-06
  0.158399999        -3.32973309E-06
  0.158700004        -3.29356271E-06
  0.158999994        -3.23972222E-06
  0.159299999        -3.16831006E-06
  0.159600005        -3.07950654E-06
  0.159899995        -2.97357587E-06
  0.160200000        -2.85086685E-06
  0.160500005        -2.71181284E-06
  0.160799995        -2.55692908E-06
  0.161100000        -2.38680673E-06
  0.161400005        -2.20210836E-06
  0.161699995        -2.00355998E-06
  0.162000000        -1.79194205E-06
  0.162300006        -1.56808244E-06
  0.162599996        -1.33284709E-06
  0.162900001        -1.08713186E-06
  0.163200006        -8.31856028E-07
  0.163499996        -5.67954828E-07
  0.163800001        -2.96374452E-07
  0.164100006        -1.80672775E-08
  0.164399996         2.66011853E-07
  0.164700001         5.54908581E-07
  0.165000007         8.47671458E-07
  0.165299997         1.14335364E-06
  0.165600002         1.44101466E-06
  0.165900007         1.73972194E-06
  0.166199997         2.03855257E-06
  0.166500002         2.33659534E-06
  0.166800007         2.63295442E-06
  0.167099997         2.92675145E-06
  0.167400002         3.21713105E-06
  0.167699993         3.50326491E-06
  0.167999998         3.78435789E-06
  0.168300003         4.05965284E-06
  0.168599993         4.32843763E-06
  0.168899998         4.59004741E-06
  0.169200003         4.84387192E-06
  0.169499993         5.08935364E-06
  0.169799998         5.32599188E-06
  0.170100003         5.55333918E-06
  0.170399994         5.77099854E-06
  0.170699999         5.97861845E-06
  0.171000004         6.17588648E-06
  0.171299994         6.36252207E-06
  0.171599999         6.53827101E-06
  0.171900004         6.70289774E-06
  0.172199994         6.85618124E-06
  0.172499999         6.99791326E-06
  0.172800004         7.12789461E-06
  0.173099995         7.24593610E-06
  0.173400000         7.35186268E-06
  0.173700005         7.44551198E-06
  0.173999995         7.52673941E-06
  0.174300000         7.59541717E-06
  0.174600005         7.65143704E-06
  0.174899995         7.69470807E-06
  0.175200000         7.72514977E-06
  0.175500005         7.74269301E-06
  0.175799996         7.74726504E-06
  0.176100001         7.73878946E-06
  0.176400006         7.71717441E-06
  0.176699996         7.68230348E-06
  0.177000001         7.63403750E-06
  0.177300006         7.57220323E-06
  0.177599996         7.49660012E-06
  0.177900001         7.40699670E-06
  0.178200006         7.30313786E-06
  0.178499997         7.18474985E-06
  0.178800002         7.05154753E-06
  0.179100007         6.90324077E-06
  0.179399997         6.73954173E-06
  0.179700002         6.56017028E-06
  0.180000007         6.36485856E-06
  0.180299997         6.15335284E-06
  0.180600002         5.92541710E-06
  0.180899993         5.68083169E-06
  0.181199998         5.41939471E-06
  0.181500003         5.14092199E-06
  0.181799993         4.84525026E-06
  0.182099998         4.53223811E-06
  0.182400003         4.20177139E-06
  0.182699993         3.85376779E-06